<?xml version="1.0"?>
<VTKFile type="UnstructuredGrid" version="0.1" byte_order="LittleEndian">
   <UnstructuredGrid>
      <Piece NumberOfPoints="25" NumberOfCells="0" > 
         <Points> 
            <DataArray type="Float64" Name="Position" NumberOfComponents="3" format="ascii"> 
               0  0  20  
               0.75  0  20  
               1.5  0  20  
               2.25  0  20  
               3  0  20  
               0  0.75  20  
               0.75  0.75  20  
               1.5  0.75  20  
               2.25  0.75  20  
               3  0.75  20  
               0  1.5  20  
               0.75  1.5  20  
               1.5  1.5  20  
               2.25  1.5  20  
               3  1.5  20  
               0  2.25  20  
               0.75  2.25  20  
               1.5  2.25  20  
               2.25  2.25  20  
               3  2.25  20  
               0  3  20  
               0.75  3  20  
               1.5  3  20  
               2.25  3  20  
               3  3  20  
            </DataArray>
         </Points> 

         <Cells>
            <DataArray type="Int32" Name="connectivity" NumberOfComponents="1" format="ascii">
               
            </DataArray> 
            <DataArray type="Int32" Name="offsets" NumberOfComponents="1" format="ascii">
               
            </DataArray>
            <DataArray type="UInt8"  Name="types" NumberOfComponents="1" format="ascii">
               
            </DataArray>
         </Cells>
         <PointData Scalars="Rank " Vectors="Displacement Velocity Traction ">
            <DataArray type="UInt32" Name="Rank" NumberOfComponents="1" format="ascii">
               0 0 0 0 0 0 0 0 0 0 0 0 0 0 0 0 0 0 0 0 0 0 0 0 0 
            </DataArray>
            <DataArray type="Float64" Name="Displacement" NumberOfComponents="3" format="ascii">
               0.00196039 0.00194792 -0.00866828  0.000118486 0.00327882 -0.0085158  -0.00087028 0.00395605 -0.00815999  -0.000842018 0.00285643 -0.00855503  -0.00209942 0.00332701 -0.0086897  0.00327359 0.000105541 -0.00850969  0.000967557 0.00096971 -0.007655  -0.000273227 0.00154202 -0.00696076  -0.000950682 0.00100215 -0.00792288  -0.00275833 0.00161362 -0.00839981  0.00394432 -0.000876413 -0.00814659  0.00153533 -0.000279368 -0.00695779  1.29142e-05 9.91646e-06 -0.00571608  -0.00143628 0.000222483 -0.00700263  -0.0038242 0.000890004 -0.0081417  0.0028369 -0.000829061 -0.00853779  0.000992753 -0.000947118 -0.00791913  0.000222853 -0.00143035 -0.00700043  -0.000905428 -0.000897273 -0.00773033  -0.00318984 -0.000181359 -0.00850599  0.00330354 -0.00207391 -0.00865379  0.00159754 -0.00274285 -0.0083845  0.000889073 -0.0038105 -0.00812778  -0.00017332 -0.00317352 -0.00849562  -0.00198581 -0.00199231 -0.00861528  
            </DataArray>
            <DataArray type="Float64" Name="Velocity" NumberOfComponents="3" format="ascii">
               0.00288212 0.00285979 -0.0118568  0.00011781 0.00485937 -0.0113217  -0.0010093 0.00604651 -0.0106609  -0.000968712 0.00430778 -0.0113245  -0.00308575 0.00448059 -0.0118222  0.00488895 9.92689e-05 -0.0113364  0.00129457 0.00127133 -0.00968383  -0.000268315 0.0020782 -0.0083263  -0.00116237 0.00124696 -0.00993965  -0.00416369 0.00187744 -0.0111604  0.00607095 -0.00103201 -0.010669  0.00209948 -0.000286906 -0.00832284  8.34128e-05 6.5567e-05 -0.00607694  -0.00187906 0.000262039 -0.00837488  -0.00583644 0.00107429 -0.0106291  0.00432212 -0.000995786 -0.0113234  0.00126265 -0.00118343 -0.00993203  0.000277352 -0.00189825 -0.00837145  -0.00114978 -0.00116746 -0.00976667  -0.00470971 -0.000166153 -0.0112906  0.00449481 -0.00310684 -0.0118294  0.001895 -0.00418544 -0.0111614  0.00108787 -0.00585755 -0.0106352  -0.000151351 -0.00472813 -0.0113016  -0.00285044 -0.00286903 -0.0117623  
            </DataArray>
            <DataArray type="Float64" Name="Traction" NumberOfComponents="3" format="ascii">
               0 0 0  0 0 0  0 0 0  0 0 0  0 0 0  0 0 0  0 0 0  0 0 0  0 0 0  0 0 0  0 0 0  0 0 0  0 0 0  0 0 0  0 0 0  0 0 0  0 0 0  0 0 0  0 0 0  0 0 0  0 0 0  0 0 0  0 0 0  0 0 0  0 0 0  
            </DataArray>
         </PointData> 
      </Piece>
   </UnstructuredGrid> 
</VTKFile>
