<?xml version="1.0"?>
<VTKFile type="UnstructuredGrid" version="0.1" byte_order="LittleEndian">
   <UnstructuredGrid>
      <Piece NumberOfPoints="25" NumberOfCells="0" > 
         <Points> 
            <DataArray type="Float64" Name="Position" NumberOfComponents="3" format="ascii"> 
               0  0  20  
               0.75  0  20  
               1.5  0  20  
               2.25  0  20  
               3  0  20  
               0  0.75  20  
               0.75  0.75  20  
               1.5  0.75  20  
               2.25  0.75  20  
               3  0.75  20  
               0  1.5  20  
               0.75  1.5  20  
               1.5  1.5  20  
               2.25  1.5  20  
               3  1.5  20  
               0  2.25  20  
               0.75  2.25  20  
               1.5  2.25  20  
               2.25  2.25  20  
               3  2.25  20  
               0  3  20  
               0.75  3  20  
               1.5  3  20  
               2.25  3  20  
               3  3  20  
            </DataArray>
         </Points> 

         <Cells>
            <DataArray type="Int32" Name="connectivity" NumberOfComponents="1" format="ascii">
               
            </DataArray> 
            <DataArray type="Int32" Name="offsets" NumberOfComponents="1" format="ascii">
               
            </DataArray>
            <DataArray type="UInt8"  Name="types" NumberOfComponents="1" format="ascii">
               
            </DataArray>
         </Cells>
         <PointData Scalars="Rank " Vectors="Displacement Velocity Traction ">
            <DataArray type="UInt32" Name="Rank" NumberOfComponents="1" format="ascii">
               0 0 0 0 0 0 0 0 0 0 0 0 0 0 0 0 0 0 0 0 0 0 0 0 0 
            </DataArray>
            <DataArray type="Float64" Name="Displacement" NumberOfComponents="3" format="ascii">
               3.18376e-07 3.17323e-07 -1.25946e-06  -1.66119e-08 5.84623e-07 -1.16261e-06  -1.60646e-07 7.27655e-07 -1.05606e-06  -1.41351e-07 5.01989e-07 -1.13689e-06  -4.03629e-07 5.54465e-07 -1.26432e-06  5.85897e-07 -1.61253e-08 -1.16289e-06  1.54008e-07 1.5458e-07 -9.23282e-07  -3.47529e-08 2.62379e-07 -7.47812e-07  -1.33676e-07 1.35667e-07 -9.38613e-07  -4.94485e-07 2.38086e-07 -1.1292e-06  7.2602e-07 -1.59691e-07 -1.05585e-06  2.62264e-07 -3.31016e-08 -7.47801e-07  1.9105e-08 1.8747e-08 -4.84789e-07  -2.31612e-07 3.44447e-08 -7.52147e-07  -7.04133e-07 1.64825e-07 -1.05815e-06  4.99657e-07 -1.41342e-07 -1.13622e-06  1.35143e-07 -1.34403e-07 -9.3881e-07  3.58184e-08 -2.32418e-07 -7.51979e-07  -1.43029e-07 -1.43494e-07 -9.27661e-07  -5.74206e-07 4.41927e-09 -1.16167e-06  5.54107e-07 -4.04572e-07 -1.26366e-06  2.3809e-07 -4.95172e-07 -1.12977e-06  1.67297e-07 -7.0685e-07 -1.05896e-06  4.24473e-09 -5.80532e-07 -1.16247e-06  -3.23935e-07 -3.27538e-07 -1.26091e-06  
            </DataArray>
            <DataArray type="Float64" Name="Velocity" NumberOfComponents="3" format="ascii">
               4.66808e-07 4.66034e-07 -1.94637e-06  -4.06817e-08 8.68676e-07 -1.85736e-06  -3.56372e-07 1.01739e-06 -1.71242e-06  -2.97597e-07 7.05938e-07 -1.80457e-06  -6.12342e-07 9.3679e-07 -1.96291e-06  8.70303e-07 -3.94223e-08 -1.85818e-06  2.71596e-07 2.73143e-07 -1.56613e-06  -7.47505e-08 4.401e-07 -1.38912e-06  -2.42415e-07 2.57629e-07 -1.61455e-06  -6.8626e-07 4.9146e-07 -1.77525e-06  1.01237e-06 -3.5333e-07 -1.71148e-06  4.3956e-07 -6.96893e-08 -1.38905e-06  2.33467e-08 2.24336e-08 -1.11227e-06  -3.86565e-07 7.11013e-08 -1.399e-06  -9.67893e-07 3.55463e-07 -1.71234e-06  6.98808e-07 -2.97657e-07 -1.80216e-06  2.55908e-07 -2.44458e-07 -1.61507e-06  7.4963e-08 -3.8928e-07 -1.39812e-06  -2.48081e-07 -2.50464e-07 -1.57793e-06  -8.3992e-07 2.01221e-08 -1.85284e-06  9.34429e-07 -6.1467e-07 -1.96091e-06  4.91639e-07 -6.88547e-07 -1.77721e-06  3.62052e-07 -9.76124e-07 -1.7147e-06  2.04217e-08 -8.57419e-07 -1.85549e-06  -4.81963e-07 -4.90744e-07 -1.95011e-06  
            </DataArray>
            <DataArray type="Float64" Name="Traction" NumberOfComponents="3" format="ascii">
               0 0 0  0 0 0  0 0 0  0 0 0  0 0 0  0 0 0  0 0 0  0 0 0  0 0 0  0 0 0  0 0 0  0 0 0  0 0 0  0 0 0  0 0 0  0 0 0  0 0 0  0 0 0  0 0 0  0 0 0  0 0 0  0 0 0  0 0 0  0 0 0  0 0 0  
            </DataArray>
         </PointData> 
      </Piece>
   </UnstructuredGrid> 
</VTKFile>
