<?xml version="1.0"?>
<VTKFile type="UnstructuredGrid" version="0.1" byte_order="LittleEndian">
   <UnstructuredGrid>
      <Piece NumberOfPoints="25" NumberOfCells="0" > 
         <Points> 
            <DataArray type="Float64" Name="Position" NumberOfComponents="3" format="ascii"> 
               0  0  20  
               0.75  0  20  
               1.5  0  20  
               2.25  0  20  
               3  0  20  
               0  0.75  20  
               0.75  0.75  20  
               1.5  0.75  20  
               2.25  0.75  20  
               3  0.75  20  
               0  1.5  20  
               0.75  1.5  20  
               1.5  1.5  20  
               2.25  1.5  20  
               3  1.5  20  
               0  2.25  20  
               0.75  2.25  20  
               1.5  2.25  20  
               2.25  2.25  20  
               3  2.25  20  
               0  3  20  
               0.75  3  20  
               1.5  3  20  
               2.25  3  20  
               3  3  20  
            </DataArray>
         </Points> 

         <Cells>
            <DataArray type="Int32" Name="connectivity" NumberOfComponents="1" format="ascii">
               
            </DataArray> 
            <DataArray type="Int32" Name="offsets" NumberOfComponents="1" format="ascii">
               
            </DataArray>
            <DataArray type="UInt8"  Name="types" NumberOfComponents="1" format="ascii">
               
            </DataArray>
         </Cells>
         <PointData Scalars="Rank " Vectors="Displacement Velocity Traction ">
            <DataArray type="UInt32" Name="Rank" NumberOfComponents="1" format="ascii">
               0 0 0 0 0 0 0 0 0 0 0 0 0 0 0 0 0 0 0 0 0 0 0 0 0 
            </DataArray>
            <DataArray type="Float64" Name="Displacement" NumberOfComponents="3" format="ascii">
               3.87264e-07 3.86196e-07 -1.54783e-06  -2.25629e-08 7.12192e-07 -1.43996e-06  -2.15424e-07 8.75481e-07 -1.31305e-06  -1.87063e-07 6.05147e-07 -1.40663e-06  -4.93572e-07 6.94502e-07 -1.55499e-06  7.13616e-07 -2.18624e-08 -1.44037e-06  1.94835e-07 1.95667e-07 -1.16034e-06  -4.64293e-08 3.27922e-07 -9.61142e-07  -1.70659e-07 1.75299e-07 -1.18366e-06  -5.94337e-07 3.13386e-07 -1.39387e-06  8.72994e-07 -2.13947e-07 -1.31267e-06  3.27706e-07 -4.39323e-08 -9.6112e-07  2.21162e-08 2.16139e-08 -6.60012e-07  -2.89368e-07 4.53815e-08 -9.67014e-07  -8.44246e-07 2.19174e-07 -1.31492e-06  6.01623e-07 -1.87069e-07 -1.40555e-06  1.7448e-07 -1.71716e-07 -1.18394e-06  4.73886e-08 -2.90638e-07 -9.66685e-07  -1.80262e-07 -1.81164e-07 -1.16663e-06  -6.9712e-07 7.37306e-09 -1.43822e-06  6.93694e-07 -4.94886e-07 -1.554e-06  3.13422e-07 -5.9542e-07 -1.39478e-06  2.22714e-07 -8.48344e-07 -1.31612e-06  7.26773e-09 -7.0629e-07 -1.43948e-06  -3.95197e-07 -4.00165e-07 -1.54972e-06  
            </DataArray>
            <DataArray type="Float64" Name="Velocity" NumberOfComponents="3" format="ascii">
               5.12793e-07 5.13403e-07 -2.15374e-06  -4.35166e-08 9.45078e-07 -2.08548e-06  -4.20772e-07 1.085e-06 -1.94103e-06  -3.51264e-07 7.61258e-07 -2.03066e-06  -6.66424e-07 1.05329e-06 -2.1697e-06  9.45514e-07 -4.17215e-08 -2.08647e-06  3.0844e-07 3.10613e-07 -1.80329e-06  -9.11811e-08 4.91369e-07 -1.64218e-06  -2.83074e-07 3.05309e-07 -1.86828e-06  -7.33906e-07 5.77759e-07 -1.98783e-06  1.0779e-06 -4.16396e-07 -1.93954e-06  4.90469e-07 -8.42354e-08 -1.6421e-06  1.95508e-08 1.84175e-08 -1.37618e-06  -4.34272e-07 8.42667e-08 -1.65412e-06  -1.02494e-06 4.15742e-07 -1.93783e-06  7.51477e-07 -3.5142e-07 -2.02709e-06  3.0283e-07 -2.85695e-07 -1.86892e-06  8.93971e-08 -4.38144e-07 -1.65272e-06  -2.80983e-07 -2.84789e-07 -1.81868e-06  -9.07775e-07 2.14485e-08 -2.07871e-06  1.04924e-06 -6.69372e-07 -2.16703e-06  5.78031e-07 -7.37252e-07 -1.99075e-06  4.24306e-07 -1.0363e-06 -1.94109e-06  2.21156e-08 -9.30622e-07 -2.08252e-06  -5.3131e-07 -5.41875e-07 -2.15613e-06  
            </DataArray>
            <DataArray type="Float64" Name="Traction" NumberOfComponents="3" format="ascii">
               0 0 0  0 0 0  0 0 0  0 0 0  0 0 0  0 0 0  0 0 0  0 0 0  0 0 0  0 0 0  0 0 0  0 0 0  0 0 0  0 0 0  0 0 0  0 0 0  0 0 0  0 0 0  0 0 0  0 0 0  0 0 0  0 0 0  0 0 0  0 0 0  0 0 0  
            </DataArray>
         </PointData> 
      </Piece>
   </UnstructuredGrid> 
</VTKFile>
