<?xml version="1.0"?>
<VTKFile type="UnstructuredGrid" version="0.1" byte_order="LittleEndian">
   <UnstructuredGrid>
      <Piece NumberOfPoints="25" NumberOfCells="0" > 
         <Points> 
            <DataArray type="Float64" Name="Position" NumberOfComponents="3" format="ascii"> 
               0  0  20  
               0.75  0  20  
               1.5  0  20  
               2.25  0  20  
               3  0  20  
               0  0.75  20  
               0.75  0.75  20  
               1.5  0.75  20  
               2.25  0.75  20  
               3  0.75  20  
               0  1.5  20  
               0.75  1.5  20  
               1.5  1.5  20  
               2.25  1.5  20  
               3  1.5  20  
               0  2.25  20  
               0.75  2.25  20  
               1.5  2.25  20  
               2.25  2.25  20  
               3  2.25  20  
               0  3  20  
               0.75  3  20  
               1.5  3  20  
               2.25  3  20  
               3  3  20  
            </DataArray>
         </Points> 

         <Cells>
            <DataArray type="Int32" Name="connectivity" NumberOfComponents="1" format="ascii">
               
            </DataArray> 
            <DataArray type="Int32" Name="offsets" NumberOfComponents="1" format="ascii">
               
            </DataArray>
            <DataArray type="UInt8"  Name="types" NumberOfComponents="1" format="ascii">
               
            </DataArray>
         </Cells>
         <PointData Scalars="Rank " Vectors="Displacement Velocity Traction ">
            <DataArray type="UInt32" Name="Rank" NumberOfComponents="1" format="ascii">
               0 0 0 0 0 0 0 0 0 0 0 0 0 0 0 0 0 0 0 0 0 0 0 0 0 
            </DataArray>
            <DataArray type="Float64" Name="Displacement" NumberOfComponents="3" format="ascii">
               5.63382e-07 5.63519e-07 -2.2965e-06  -3.52674e-08 1.03082e-06 -2.17916e-06  -3.70205e-07 1.23099e-06 -2.01145e-06  -3.17383e-07 8.59679e-07 -2.13063e-06  -7.1841e-07 1.06618e-06 -2.30688e-06  1.03131e-06 -3.36409e-08 -2.17989e-06  3.04835e-07 3.06756e-07 -1.82233e-06  -8.26119e-08 4.99587e-07 -1.58393e-06  -2.75967e-07 2.90496e-07 -1.87373e-06  -8.36111e-07 5.28135e-07 -2.09763e-06  1.22512e-06 -3.66613e-07 -2.01027e-06  4.98852e-07 -7.70077e-08 -1.58389e-06  2.57726e-08 2.4837e-08 -1.20966e-06  -4.42667e-07 7.73234e-08 -1.5944e-06  -1.17632e-06 3.70582e-07 -2.01033e-06  8.51792e-07 -3.17485e-07 -2.1278e-06  2.88485e-07 -2.78061e-07 -1.87424e-06  8.15347e-08 -4.45716e-07 -1.59336e-06  -2.80347e-07 -2.83184e-07 -1.83509e-06  -1.00024e-06 1.26746e-08 -2.17422e-06  1.06311e-06 -7.20959e-07 -2.30476e-06  5.28258e-07 -8.38822e-07 -2.09999e-06  3.77678e-07 -1.18555e-06 -2.01304e-06  1.28805e-08 -1.01893e-06 -2.17726e-06  -5.78621e-07 -5.87442e-07 -2.29764e-06  
            </DataArray>
            <DataArray type="Float64" Name="Velocity" NumberOfComponents="3" format="ascii">
               5.72723e-07 5.80465e-07 -2.46998e-06  -3.09605e-08 1.0144e-06 -2.48498e-06  -5.31283e-07 1.09747e-06 -2.38389e-06  -4.52496e-07 8.04931e-07 -2.45075e-06  -7.16336e-07 1.23982e-06 -2.47178e-06  1.00692e-06 -2.66665e-08 -2.48574e-06  3.70261e-07 3.75219e-07 -2.30115e-06  -1.34776e-07 5.67007e-07 -2.22718e-06  -3.69448e-07 4.08257e-07 -2.41177e-06  -7.51322e-07 7.49809e-07 -2.3661e-06  1.08306e-06 -5.22127e-07 -2.38026e-06  5.6448e-07 -1.22179e-07 -2.22725e-06  1.66579e-09 1.63119e-10 -2.04945e-06  -5.11969e-07 1.13903e-07 -2.24376e-06  -1.01211e-06 5.15479e-07 -2.36735e-06  7.87315e-07 -4.52918e-07 -2.44321e-06  4.03129e-07 -3.73157e-07 -2.41258e-06  1.22538e-07 -5.19232e-07 -2.24071e-06  -3.36979e-07 -3.45373e-07 -2.32605e-06  -9.55127e-07 7.19267e-09 -2.47157e-06  1.22931e-06 -7.21177e-07 -2.46743e-06  7.49939e-07 -7.58334e-07 -2.37245e-06  5.28985e-07 -1.03294e-06 -2.37362e-06  8.22225e-09 -9.91411e-07 -2.47904e-06  -6.00103e-07 -6.12886e-07 -2.4612e-06  
            </DataArray>
            <DataArray type="Float64" Name="Traction" NumberOfComponents="3" format="ascii">
               -4.32954e-06 -4.2407e-06 -2.53364e-05  -1.2145e-06 -7.76068e-06 -2.53364e-05  1.89902e-06 -9.07522e-06 -2.53364e-05  1.96589e-06 -5.94705e-06 -2.53364e-05  4.53529e-06 -6.96162e-06 -2.53364e-05  -7.78949e-06 -1.09722e-06 -2.53364e-05  -3.14186e-06 -3.10466e-06 -2.53364e-05  2.08883e-06 -4.718e-06 -2.53364e-05  2.80234e-06 -2.89231e-06 -2.53364e-05  5.62642e-06 -3.30753e-06 -2.53364e-05  -9.261e-06 2.02562e-06 -2.53364e-05  -4.87791e-06 2.06451e-06 -2.53364e-05  1.76174e-06 1.77301e-06 -2.53364e-05  4.68895e-06 4.8109e-07 -2.53364e-05  9.08733e-06 -7.74161e-07 -2.53364e-05  -5.97811e-06 2.106e-06 -2.53364e-05  -2.94802e-06 2.76748e-06 -2.53364e-05  4.61465e-07 4.63245e-06 -2.53364e-05  2.9064e-06 2.92744e-06 -2.53364e-05  7.47039e-06 9.00355e-07 -2.53364e-05  -6.68966e-06 4.71577e-06 -2.53364e-05  -3.06967e-06 5.57318e-06 -2.53364e-05  -4.58613e-07 9.00658e-06 -2.53364e-05  1.34718e-06 7.61764e-06 -2.53364e-05  4.3456e-06 4.01999e-06 -2.53364e-05  
            </DataArray>
         </PointData> 
      </Piece>
   </UnstructuredGrid> 
</VTKFile>
