<?xml version="1.0"?>
<VTKFile type="UnstructuredGrid" version="0.1" byte_order="LittleEndian">
   <UnstructuredGrid>
      <Piece NumberOfPoints="25" NumberOfCells="0" > 
         <Points> 
            <DataArray type="Float64" Name="Position" NumberOfComponents="3" format="ascii"> 
               0  0  20  
               0.75  0  20  
               1.5  0  20  
               2.25  0  20  
               3  0  20  
               0  0.75  20  
               0.75  0.75  20  
               1.5  0.75  20  
               2.25  0.75  20  
               3  0.75  20  
               0  1.5  20  
               0.75  1.5  20  
               1.5  1.5  20  
               2.25  1.5  20  
               3  1.5  20  
               0  2.25  20  
               0.75  2.25  20  
               1.5  2.25  20  
               2.25  2.25  20  
               3  2.25  20  
               0  3  20  
               0.75  3  20  
               1.5  3  20  
               2.25  3  20  
               3  3  20  
            </DataArray>
         </Points> 

         <Cells>
            <DataArray type="Int32" Name="connectivity" NumberOfComponents="1" format="ascii">
               
            </DataArray> 
            <DataArray type="Int32" Name="offsets" NumberOfComponents="1" format="ascii">
               
            </DataArray>
            <DataArray type="UInt8"  Name="types" NumberOfComponents="1" format="ascii">
               
            </DataArray>
         </Cells>
         <PointData Scalars="Rank " Vectors="Displacement Velocity Traction ">
            <DataArray type="UInt32" Name="Rank" NumberOfComponents="1" format="ascii">
               0 0 0 0 0 0 0 0 0 0 0 0 0 0 0 0 0 0 0 0 0 0 0 0 0 
            </DataArray>
            <DataArray type="Float64" Name="Displacement" NumberOfComponents="3" format="ascii">
               -1.89788e-06 -2.35034e-06 -5.24706e-07  3.1461e-07 -2.17606e-06 -2.3904e-07  1.90659e-06 -5.15755e-07 1.0125e-07  2.28417e-06 -1.09111e-06 -1.78431e-07  2.39854e-06 -3.27492e-06 -6.08038e-07  -1.92546e-06 -2.15209e-07 -2.80241e-07  -1.01968e-06 -1.35714e-06 1.62129e-07  5.24448e-07 -1.29166e-06 1.24019e-06  1.60595e-06 -1.5421e-06 7.03698e-07  1.20576e-06 -2.36015e-06 -7.06984e-07  -3.08806e-07 1.47382e-06 2.033e-07  -1.02519e-06 1.94948e-07 1.29476e-06  3.40165e-07 1.45591e-07 2.16896e-06  1.07933e-06 4.2761e-08 1.19472e-06  8.77067e-09 -8.57476e-07 -4.30401e-07  -1.1366e-06 1.9705e-06 1.28942e-08  -1.46801e-06 1.47218e-06 7.31888e-07  1.0933e-07 1.25108e-06 1.2182e-06  1.06084e-06 1.36825e-06 2.87479e-07  1.17134e-06 5.18491e-07 -8.02638e-07  -3.7016e-06 2.17451e-06 -2.87701e-07  -2.74858e-06 1.22281e-06 -6.11308e-07  -1.05164e-06 3.81598e-07 -1.48614e-07  3.77003e-07 1.715e-06 -4.56364e-07  1.76699e-06 1.97944e-06 -1.34634e-06  
            </DataArray>
            <DataArray type="Float64" Name="Velocity" NumberOfComponents="3" format="ascii">
               3.84829e-06 3.13688e-06 -1.35268e-05  -8.20216e-07 7.92591e-06 -1.05921e-05  -1.96347e-06 1.08284e-05 -8.31273e-06  -9.75325e-07 6.91209e-06 -9.35801e-06  -5.77375e-06 6.31682e-06 -1.31967e-05  8.85288e-06 -1.61105e-06 -1.09773e-05  2.14767e-06 1.27946e-06 -5.36866e-06  5.92761e-07 2.96694e-06 -1.63419e-06  -4.19844e-08 6.91661e-07 -4.69004e-06  -6.37206e-06 1.81483e-06 -9.66209e-06  1.1806e-05 -2.84155e-06 -8.61463e-06  3.89306e-06 -1.33445e-07 -1.58863e-06  1.40946e-06 6.93331e-07 3.28227e-06  -1.89158e-06 7.12453e-07 -1.73321e-06  -1.03102e-05 3.31006e-06 -8.7399e-06  7.57383e-06 -1.83022e-06 -9.4495e-06  1.44499e-06 -5.88164e-07 -4.58004e-06  1.41605e-06 -2.26677e-06 -1.63257e-06  -5.6052e-07 -9.70667e-07 -5.28012e-06  -7.91667e-06 1.96286e-06 -1.08504e-05  6.60731e-06 -6.5856e-06 -1.33749e-05  2.2072e-06 -6.94129e-06 -9.70002e-06  3.76539e-06 -1.05918e-05 -8.65224e-06  2.50687e-06 -8.06325e-06 -1.08577e-05  -2.71819e-06 -3.28379e-06 -1.36966e-05  
            </DataArray>
            <DataArray type="Float64" Name="Traction" NumberOfComponents="3" format="ascii">
               -3.8898e-06 -4.09228e-06 -0.00014667  -1.58249e-05 1.3241e-05 -0.00014667  -1.70499e-05 -6.61682e-06 -0.00014667  -1.2471e-05 -2.90171e-06 -0.00014667  -1.07479e-05 2.66688e-05 -0.00014667  1.85783e-05 -1.68077e-05 -0.00014667  9.536e-06 3.99251e-06 -0.00014667  4.84121e-06 -1.42578e-06 -0.00014667  2.28739e-06 2.57745e-06 -0.00014667  7.79756e-06 2.10393e-05 -0.00014667  -2.25111e-06 -1.99302e-05 -0.00014667  2.4859e-06 5.75687e-07 -0.00014667  6.65578e-06 3.95103e-06 -0.00014667  8.46296e-06 5.57946e-06 -0.00014667  1.73452e-05 1.82464e-05 -0.00014667  6.3618e-06 -1.72164e-05 -0.00014667  8.93687e-06 -1.09294e-06 -0.00014667  7.53812e-06 3.72332e-06 -0.00014667  2.50659e-06 -5.20246e-07 -0.00014667  2.60402e-06 1.21532e-05 -0.00014667  3.56095e-05 -1.63857e-05 -0.00014667  2.69324e-05 5.02839e-06 -0.00014667  1.95389e-05 1.21919e-05 -0.00014667  1.32437e-05 -2.08088e-06 -0.00014667  6.51082e-06 3.22682e-06 -0.00014667  
            </DataArray>
         </PointData> 
      </Piece>
   </UnstructuredGrid> 
</VTKFile>
