<?xml version="1.0"?>
<VTKFile type="UnstructuredGrid" version="0.1" byte_order="LittleEndian">
   <UnstructuredGrid>
      <Piece NumberOfPoints="25" NumberOfCells="0" > 
         <Points> 
            <DataArray type="Float64" Name="Position" NumberOfComponents="3" format="ascii"> 
               0  0  20  
               0.75  0  20  
               1.5  0  20  
               2.25  0  20  
               3  0  20  
               0  0.75  20  
               0.75  0.75  20  
               1.5  0.75  20  
               2.25  0.75  20  
               3  0.75  20  
               0  1.5  20  
               0.75  1.5  20  
               1.5  1.5  20  
               2.25  1.5  20  
               3  1.5  20  
               0  2.25  20  
               0.75  2.25  20  
               1.5  2.25  20  
               2.25  2.25  20  
               3  2.25  20  
               0  3  20  
               0.75  3  20  
               1.5  3  20  
               2.25  3  20  
               3  3  20  
            </DataArray>
         </Points> 

         <Cells>
            <DataArray type="Int32" Name="connectivity" NumberOfComponents="1" format="ascii">
               
            </DataArray> 
            <DataArray type="Int32" Name="offsets" NumberOfComponents="1" format="ascii">
               
            </DataArray>
            <DataArray type="UInt8"  Name="types" NumberOfComponents="1" format="ascii">
               
            </DataArray>
         </Cells>
         <PointData Scalars="Rank " Vectors="Displacement Velocity Traction ">
            <DataArray type="UInt32" Name="Rank" NumberOfComponents="1" format="ascii">
               0 0 0 0 0 0 0 0 0 0 0 0 0 0 0 0 0 0 0 0 0 0 0 0 0 
            </DataArray>
            <DataArray type="Float64" Name="Displacement" NumberOfComponents="3" format="ascii">
               -9.14934e-08 1.58483e-08 -2.42818e-06  5.00779e-07 -5.15016e-07 -3.36168e-06  9.10286e-08 -8.57405e-07 -3.91265e-06  -1.24283e-09 -3.14427e-07 -3.81702e-06  7.1415e-07 2.4658e-07 -2.45213e-06  -7.446e-07 5.66407e-07 -3.29158e-06  9.14363e-08 2.00701e-07 -4.56805e-06  -3.46808e-07 7.84739e-08 -5.31607e-06  -4.34183e-07 4.3883e-07 -4.99817e-06  5.22624e-07 5.48305e-07 -3.5294e-06  -1.01819e-06 2.02038e-07 -3.84948e-06  -5.4041e-09 -2.5913e-07 -5.32794e-06  -2.56771e-07 -2.01467e-07 -6.06731e-06  -2.97056e-07 1.08299e-07 -5.35597e-06  8.69824e-07 -1.32571e-07 -3.81418e-06  -4.3167e-07 3.58118e-08 -3.75126e-06  3.53085e-07 -3.88552e-07 -5.00364e-06  6.65345e-08 -2.38718e-07 -5.36282e-06  -2.69276e-07 -1.91259e-07 -4.63212e-06  5.15843e-07 -5.27225e-07 -3.34517e-06  9.59471e-08 7.07492e-07 -2.41027e-06  4.28585e-07 5.43901e-07 -3.55533e-06  -2.10608e-07 8.93536e-07 -3.83164e-06  -6.7001e-07 5.60035e-07 -3.32353e-06  -1.99199e-07 -4.24871e-08 -2.42477e-06  
            </DataArray>
            <DataArray type="Float64" Name="Velocity" NumberOfComponents="3" format="ascii">
               -1.9853e-06 -1.96116e-06 4.3543e-06  5.00541e-07 -3.49895e-06 3.62104e-06  1.71403e-06 -3.72137e-06 3.0399e-06  1.52541e-06 -2.68302e-06 3.20951e-06  2.98521e-06 -3.64934e-06 4.26809e-06  -3.67956e-06 5.18663e-07 3.70978e-06  -1.11471e-06 -1.01803e-06 2.19439e-06  1.32439e-07 -1.61551e-06 1.56003e-06  8.46749e-07 -9.9802e-07 2.20949e-06  2.62632e-06 -1.8598e-06 3.09507e-06  -3.86319e-06 1.79199e-06 3.12369e-06  -1.71884e-06 1.88829e-07 1.55672e-06  -2.33719e-07 -1.3749e-07 5.57273e-07  1.21898e-06 -2.51651e-07 1.57025e-06  3.37479e-06 -1.63562e-06 2.97521e-06  -2.79704e-06 1.58231e-06 3.27393e-06  -1.11142e-06 9.2432e-07 2.19951e-06  -3.81857e-07 1.37031e-06 1.5444e-06  7.48134e-07 9.52997e-07 2.22699e-06  3.14862e-06 -4.2834e-07 3.51027e-06  -3.83549e-06 3.03015e-06 4.35816e-06  -2.07314e-06 2.73928e-06 3.12084e-06  -1.83178e-06 3.57549e-06 3.02582e-06  -6.39226e-07 3.40414e-06 3.62222e-06  1.69282e-06 1.95038e-06 4.15874e-06  
            </DataArray>
            <DataArray type="Float64" Name="Traction" NumberOfComponents="3" format="ascii">
               1.09298e-06 2.16481e-06 3.36973e-05  -4.16134e-06 1.0257e-05 3.36973e-05  -1.71764e-06 1.28761e-05 3.36973e-05  -6.22098e-06 9.5419e-06 3.36973e-05  -1.63331e-05 7.72786e-06 3.36973e-05  1.16009e-05 -2.19875e-06 3.36973e-05  4.00648e-06 3.79581e-06 3.36973e-05  2.59227e-06 4.23625e-06 3.36973e-05  -2.67102e-06 1.3188e-06 3.36973e-05  -1.38994e-05 2.34503e-06 3.36973e-05  1.25782e-05 -5.30998e-07 3.36973e-05  3.50546e-06 2.48585e-06 3.36973e-05  -8.13209e-07 -1.71477e-07 3.36973e-05  -3.48801e-06 -2.47189e-06 3.36973e-05  -1.36968e-05 2.06485e-06 3.36973e-05  9.58585e-06 -5.25544e-06 3.36973e-05  8.21912e-07 -2.34814e-06 3.36973e-05  -3.81291e-06 -3.15083e-06 3.36973e-05  -4.96849e-06 -3.60149e-06 3.36973e-05  -1.2037e-05 1.43433e-06 3.36973e-05  8.47177e-06 -1.50968e-05 3.36973e-05  2.31011e-06 -1.30672e-05 3.36973e-05  1.06399e-06 -1.3033e-05 3.36973e-05  8.47031e-07 -1.03015e-05 3.36973e-05  -4.6693e-06 -4.22335e-06 3.36973e-05  
            </DataArray>
         </PointData> 
      </Piece>
   </UnstructuredGrid> 
</VTKFile>
