<?xml version="1.0"?>
<VTKFile type="UnstructuredGrid" version="0.1" byte_order="LittleEndian">
   <UnstructuredGrid>
      <Piece NumberOfPoints="25" NumberOfCells="0" > 
         <Points> 
            <DataArray type="Float64" Name="Position" NumberOfComponents="3" format="ascii"> 
               0  0  20  
               0.75  0  20  
               1.5  0  20  
               2.25  0  20  
               3  0  20  
               0  0.75  20  
               0.75  0.75  20  
               1.5  0.75  20  
               2.25  0.75  20  
               3  0.75  20  
               0  1.5  20  
               0.75  1.5  20  
               1.5  1.5  20  
               2.25  1.5  20  
               3  1.5  20  
               0  2.25  20  
               0.75  2.25  20  
               1.5  2.25  20  
               2.25  2.25  20  
               3  2.25  20  
               0  3  20  
               0.75  3  20  
               1.5  3  20  
               2.25  3  20  
               3  3  20  
            </DataArray>
         </Points> 

         <Cells>
            <DataArray type="Int32" Name="connectivity" NumberOfComponents="1" format="ascii">
               
            </DataArray> 
            <DataArray type="Int32" Name="offsets" NumberOfComponents="1" format="ascii">
               
            </DataArray>
            <DataArray type="UInt8"  Name="types" NumberOfComponents="1" format="ascii">
               
            </DataArray>
         </Cells>
         <PointData Scalars="Rank " Vectors="Displacement Velocity Traction ">
            <DataArray type="UInt32" Name="Rank" NumberOfComponents="1" format="ascii">
               0 0 0 0 0 0 0 0 0 0 0 0 0 0 0 0 0 0 0 0 0 0 0 0 0 
            </DataArray>
            <DataArray type="Float64" Name="Displacement" NumberOfComponents="3" format="ascii">
               8.59547e-07 8.71743e-07 -3.66373e-06  -2.39015e-08 1.51591e-06 -3.62745e-06  -6.69292e-07 1.70342e-06 -3.46302e-06  -5.83553e-07 1.24219e-06 -3.59413e-06  -1.05818e-06 1.75127e-06 -3.66422e-06  1.50138e-06 -1.66226e-08 -3.62702e-06  5.13729e-07 5.22158e-07 -3.28539e-06  -1.822e-07 8.04439e-07 -3.0924e-06  -5.10497e-07 5.52458e-07 -3.42733e-06  -1.1694e-06 9.8749e-07 -3.48673e-06  1.68293e-06 -6.56006e-07 -3.45775e-06  8.00115e-07 -1.65608e-07 -3.09291e-06  9.53177e-09 8.15391e-09 -2.71674e-06  -7.28904e-07 1.51137e-07 -3.11421e-06  -1.59229e-06 6.55699e-07 -3.44066e-06  1.21939e-06 -5.83652e-07 -3.58391e-06  5.45124e-07 -5.14247e-07 -3.42826e-06  1.61774e-07 -7.37433e-07 -3.1106e-06  -4.73391e-07 -4.83133e-07 -3.31715e-06  -1.44197e-06 -1.19161e-08 -3.61076e-06  1.73645e-06 -1.06503e-06 -3.65902e-06  9.86325e-07 -1.17867e-06 -3.49549e-06  6.71713e-07 -1.61868e-06 -3.44938e-06  -1.31722e-08 -1.48601e-06 -3.62026e-06  -8.98942e-07 -9.12032e-07 -3.64852e-06  
            </DataArray>
            <DataArray type="Float64" Name="Velocity" NumberOfComponents="3" format="ascii">
               3.9429e-07 4.3194e-07 -2.0882e-06  9.26933e-08 5.46908e-07 -2.37969e-06  -4.40759e-07 3.9984e-07 -2.52068e-06  -4.18861e-07 4.30899e-07 -2.48557e-06  -3.66749e-07 1.01345e-06 -2.05772e-06  4.94676e-07 1.10462e-07 -2.37259e-06  3.18672e-07 3.39499e-07 -2.66732e-06  -2.0701e-07 4.32516e-07 -2.92869e-06  -4.18743e-07 4.70089e-07 -2.87357e-06  -3.12306e-07 7.76042e-07 -2.31238e-06  3.60438e-07 -4.13744e-07 -2.50904e-06  4.20602e-07 -1.8058e-07 -2.93114e-06  -6.53657e-08 -6.41393e-08 -3.1388e-06  -4.35104e-07 1.32038e-07 -2.95092e-06  -2.98778e-07 4.0871e-07 -2.46068e-06  3.96278e-07 -4.17473e-07 -2.46666e-06  4.55368e-07 -4.19032e-07 -2.87412e-06  1.44382e-07 -4.45103e-07 -2.94557e-06  -3.05325e-07 -3.18741e-07 -2.70759e-06  -4.60757e-07 -1.14179e-07 -2.35212e-06  9.80787e-07 -3.77394e-07 -2.05173e-06  7.68917e-07 -3.27853e-07 -2.32889e-06  4.2303e-07 -3.35944e-07 -2.47598e-06  -1.24477e-07 -5.07454e-07 -2.36649e-06  -4.57366e-07 -4.53316e-07 -2.03942e-06  
            </DataArray>
            <DataArray type="Float64" Name="Traction" NumberOfComponents="3" format="ascii">
               0 0 0  0 0 0  0 0 0  0 0 0  0 0 0  0 0 0  0 0 0  0 0 0  0 0 0  0 0 0  0 0 0  0 0 0  0 0 0  0 0 0  0 0 0  0 0 0  0 0 0  0 0 0  0 0 0  0 0 0  0 0 0  0 0 0  0 0 0  0 0 0  0 0 0  
            </DataArray>
         </PointData> 
      </Piece>
   </UnstructuredGrid> 
</VTKFile>
