<?xml version="1.0"?>
<VTKFile type="UnstructuredGrid" version="0.1" byte_order="LittleEndian">
   <UnstructuredGrid>
      <Piece NumberOfPoints="25" NumberOfCells="0" > 
         <Points> 
            <DataArray type="Float64" Name="Position" NumberOfComponents="3" format="ascii"> 
               0  0  20  
               0.75  0  20  
               1.5  0  20  
               2.25  0  20  
               3  0  20  
               0  0.75  20  
               0.75  0.75  20  
               1.5  0.75  20  
               2.25  0.75  20  
               3  0.75  20  
               0  1.5  20  
               0.75  1.5  20  
               1.5  1.5  20  
               2.25  1.5  20  
               3  1.5  20  
               0  2.25  20  
               0.75  2.25  20  
               1.5  2.25  20  
               2.25  2.25  20  
               3  2.25  20  
               0  3  20  
               0.75  3  20  
               1.5  3  20  
               2.25  3  20  
               3  3  20  
            </DataArray>
         </Points> 

         <Cells>
            <DataArray type="Int32" Name="connectivity" NumberOfComponents="1" format="ascii">
               
            </DataArray> 
            <DataArray type="Int32" Name="offsets" NumberOfComponents="1" format="ascii">
               
            </DataArray>
            <DataArray type="UInt8"  Name="types" NumberOfComponents="1" format="ascii">
               
            </DataArray>
         </Cells>
         <PointData Scalars="Rank " Vectors="Displacement Velocity Traction ">
            <DataArray type="UInt32" Name="Rank" NumberOfComponents="1" format="ascii">
               0 0 0 0 0 0 0 0 0 0 0 0 0 0 0 0 0 0 0 0 0 0 0 0 0 
            </DataArray>
            <DataArray type="Float64" Name="Displacement" NumberOfComponents="3" format="ascii">
               -1.77502e-06 -2.24897e-06 -9.53268e-07  2.89728e-07 -1.92591e-06 -5.776e-07  1.84347e-06 -1.77153e-07 -1.67147e-07  2.25139e-06 -8.73758e-07 -4.79304e-07  2.21653e-06 -3.07291e-06 -1.02605e-06  -1.64707e-06 -2.63963e-07 -6.30685e-07  -9.5097e-07 -1.31495e-06 -1.53057e-08  5.4184e-07 -1.19701e-06 1.17739e-06  1.60204e-06 -1.51796e-06 5.46006e-07  1.00554e-06 -2.29979e-06 -1.01621e-06  5.99097e-08 1.38409e-06 -7.46564e-08  -9.02003e-07 1.90262e-07 1.23327e-06  3.83433e-07 1.66851e-07 2.25814e-06  1.01827e-06 6.51041e-08 1.12882e-06  -3.12925e-07 -7.53529e-07 -7.11264e-07  -8.98509e-07 1.91133e-06 -2.91098e-07  -1.42045e-06 1.45144e-06 5.77597e-07  1.53498e-07 1.1782e-06 1.15537e-06  1.0415e-06 1.33585e-06 1.12551e-07  9.22865e-07 5.78077e-07 -1.14843e-06  -3.49008e-06 1.96718e-06 -7.11873e-07  -2.6756e-06 1.00477e-06 -9.21938e-07  -9.33407e-07 5.07084e-08 -4.27201e-07  4.53425e-07 1.46137e-06 -8.02833e-07  1.67918e-06 1.87406e-06 -1.77898e-06  
            </DataArray>
            <DataArray type="Float64" Name="Velocity" NumberOfComponents="3" format="ascii">
               4.22289e-06 3.50405e-06 -1.46775e-05  -8.33743e-07 8.5507e-06 -1.1644e-05  -2.17505e-06 1.15238e-05 -9.2746e-06  -1.15251e-06 7.41746e-06 -1.03767e-05  -6.21723e-06 6.94697e-06 -1.43147e-05  9.49892e-06 -1.6318e-06 -1.20456e-05  2.36291e-06 1.47138e-06 -6.19709e-06  5.72974e-07 3.25134e-06 -2.33018e-06  -1.7598e-07 8.6269e-07 -5.54962e-06  -6.83029e-06 2.11174e-06 -1.06422e-05  1.25407e-05 -3.06671e-06 -9.60175e-06  4.215e-06 -1.67752e-07 -2.28742e-06  1.45866e-06 7.16386e-07 2.81406e-06  -2.10926e-06 7.61071e-07 -2.43613e-06  -1.09373e-05 3.54292e-06 -9.68416e-06  8.12337e-06 -2.04437e-06 -1.0487e-05  1.657e-06 -7.44397e-07 -5.43456e-06  1.50051e-06 -2.51235e-06 -2.3327e-06  -6.88055e-07 -1.13575e-06 -6.11611e-06  -8.47109e-06 1.99751e-06 -1.1876e-05  7.27736e-06 -7.07748e-06 -1.4534e-05  2.54702e-06 -7.43721e-06 -1.06934e-05  4.02977e-06 -1.12563e-05 -9.61434e-06  2.56729e-06 -8.65617e-06 -1.19066e-05  -3.03515e-06 -3.63085e-06 -1.47962e-05  
            </DataArray>
            <DataArray type="Float64" Name="Traction" NumberOfComponents="3" format="ascii">
               -5.33743e-06 -5.44388e-06 -0.000163535  -1.63174e-05 1.10489e-05 -0.000163535  -1.68484e-05 -9.71128e-06 -0.000163535  -1.18536e-05 -5.11658e-06 -0.000163535  -8.80748e-06 2.4948e-05 -0.000163535  1.63637e-05 -1.7276e-05 -0.000163535  8.78262e-06 3.18018e-06 -0.000163535  5.44721e-06 -2.90263e-06 -0.000163535  3.29727e-06 1.71384e-06 -0.000163535  1.01689e-05 2.05603e-05 -0.000163535  -5.30073e-06 -1.9785e-05 -0.000163535  1.11213e-06 1.06796e-06 -0.000163535  7.34109e-06 4.4825e-06 -0.000163535  1.00719e-05 5.79796e-06 -0.000163535  2.06767e-05 1.82537e-05 -0.000163535  4.35374e-06 -1.66186e-05 -0.000163535  8.27027e-06 -1.39327e-07 -0.000163535  7.93103e-06 5.18369e-06 -0.000163535  3.5658e-06 3.97737e-07 -0.000163535  5.23667e-06 1.2591e-05 -0.000163535  3.4099e-05 -1.44296e-05 -0.000163535  2.66379e-05 7.42084e-06 -0.000163535  1.97163e-05 1.54274e-05 -0.000163535  1.37668e-05 4.1702e-07 -0.000163535  8.03345e-06 4.69667e-06 -0.000163535  
            </DataArray>
         </PointData> 
      </Piece>
   </UnstructuredGrid> 
</VTKFile>
