<?xml version="1.0"?>
<VTKFile type="UnstructuredGrid" version="0.1" byte_order="LittleEndian">
   <UnstructuredGrid>
      <Piece NumberOfPoints="25" NumberOfCells="0" > 
         <Points> 
            <DataArray type="Float64" Name="Position" NumberOfComponents="3" format="ascii"> 
               0  0  15  
               0.75  0  15  
               1.5  0  15  
               2.25  0  15  
               3  0  15  
               0  0.75  15  
               0.75  0.75  15  
               1.5  0.75  15  
               2.25  0.75  15  
               3  0.75  15  
               0  1.5  15  
               0.75  1.5  15  
               1.5  1.5  15  
               2.25  1.5  15  
               3  1.5  15  
               0  2.25  15  
               0.75  2.25  15  
               1.5  2.25  15  
               2.25  2.25  15  
               3  2.25  15  
               0  3  15  
               0.75  3  15  
               1.5  3  15  
               2.25  3  15  
               3  3  15  
            </DataArray>
         </Points> 

         <Cells>
            <DataArray type="Int32" Name="connectivity" NumberOfComponents="1" format="ascii">
               
            </DataArray> 
            <DataArray type="Int32" Name="offsets" NumberOfComponents="1" format="ascii">
               
            </DataArray>
            <DataArray type="UInt8"  Name="types" NumberOfComponents="1" format="ascii">
               
            </DataArray>
         </Cells>
         <PointData Scalars="Rank " Vectors="Displacement Velocity Traction ">
            <DataArray type="UInt32" Name="Rank" NumberOfComponents="1" format="ascii">
               0 0 0 0 0 0 0 0 0 0 0 0 0 0 0 0 0 0 0 0 0 0 0 0 0 
            </DataArray>
            <DataArray type="Float64" Name="Displacement" NumberOfComponents="3" format="ascii">
               6.21991e-05 2.34152e-05 5.75879e-07  6.20302e-05 2.23652e-06 -5.89198e-07  5.73417e-05 3.92774e-06 -1.35455e-06  5.15665e-05 7.50832e-06 -1.19797e-06  5.03576e-05 1.47636e-06 5.19063e-07  1.98954e-05 2.34929e-05 -4.82457e-07  2.06752e-05 3.21414e-06 -2.41148e-06  2.19661e-05 3.41449e-06 -3.32256e-06  2.33151e-05 6.10163e-06 -2.70356e-06  2.46747e-05 -6.1057e-07 -1.08138e-06  2.02649e-05 2.19831e-05 -1.23631e-06  1.85997e-05 3.99749e-06 -3.32715e-06  1.29466e-05 -1.73819e-06 -4.49683e-06  8.13561e-06 3.15568e-06 -3.35159e-06  6.95527e-06 -4.84404e-06 -1.3631e-06  1.50211e-05 1.90523e-05 -1.08464e-06  1.48299e-05 3.4657e-06 -2.71478e-06  1.53403e-05 -6.75695e-06 -3.3711e-06  1.72433e-05 1.86407e-06 -2.43511e-06  1.70925e-05 -3.53791e-06 -6.98161e-07  -7.23758e-07 1.80657e-05 6.4391e-07  -1.01877e-06 2.49427e-06 -1.07813e-06  -2.08415e-06 -1.00877e-05 -1.31859e-06  1.80143e-06 -2.97645e-07 -5.79589e-07  5.59139e-06 -4.97727e-07 3.94518e-07  
            </DataArray>
            <DataArray type="Float64" Name="Velocity" NumberOfComponents="3" format="ascii">
               5.93737e-05 2.8487e-05 5.20492e-06  5.8478e-05 7.41809e-06 5.19153e-06  5.39711e-05 9.18444e-06 5.14007e-06  4.8846e-05 6.09574e-06 5.15475e-06  4.75472e-05 -6.52712e-06 5.11147e-06  2.50169e-05 2.86757e-05 5.22642e-06  2.57942e-05 8.20805e-06 4.7354e-06  2.76732e-05 7.82558e-06 4.93372e-06  3.05811e-05 4.01852e-06 5.20114e-06  3.25454e-05 -7.99798e-06 4.67781e-06  2.04272e-05 2.57525e-05 5.24674e-06  2.05142e-05 7.52202e-06 4.96291e-06  1.76071e-05 1.42235e-06 4.67965e-06  1.60814e-05 -7.3267e-07 4.95684e-06  1.70629e-05 -1.22082e-05 4.8331e-06  1.22257e-05 2.13862e-05 5.2563e-06  1.29753e-05 5.57366e-06 5.19292e-06  1.42184e-05 -3.84856e-06 4.94435e-06  1.60566e-05 -3.47218e-06 4.84115e-06  1.65812e-05 -1.35759e-05 4.86999e-06  4.38366e-06 2.02056e-05 5.32235e-06  4.32342e-06 4.02367e-06 4.76214e-06  4.20497e-06 -6.81698e-06 5.00345e-06  6.71908e-06 -5.16203e-06 5.09283e-06  8.79867e-06 -1.20972e-05 4.71136e-06  
            </DataArray>
            <DataArray type="Float64" Name="Traction" NumberOfComponents="3" format="ascii">
               0.000803904 0.000716954 0.000500144  -0.000268051 0.000625258 0.000500144  9.71789e-06 0.000658719 0.000500144  0.000201218 0.000822114 0.000500144  -0.00100359 0.00083955 0.000500144  0.00110438 -0.000288471 0.000500144  0.000101222 6.68227e-05 0.000500144  0.000106721 0.000396797 0.000500144  0.000226601 0.000105601 0.000500144  -0.000858598 -9.73816e-05 0.000500144  0.00120118 -4.60725e-05 0.000500144  0.000281517 6.12118e-05 0.000500144  9.95512e-05 5.31811e-05 0.000500144  5.98448e-05 -8.14586e-06 0.000500144  -0.00115516 -1.66732e-05 0.000500144  0.00115226 0.000173043 0.000500144  2.4255e-05 6.87755e-05 0.000500144  3.30695e-05 -0.000248409 0.000500144  0.000112783 -0.000145332 0.000500144  -0.000160312 -0.00019544 0.000500144  0.00111906 -0.00117309 0.000500144  -0.000111195 -0.000859028 0.000500144  0.00012031 -0.000998059 0.000500144  4.35137e-05 -0.000275228 0.000500144  0.000761295 0.00059806 0.000500144  
            </DataArray>
         </PointData> 
      </Piece>
   </UnstructuredGrid> 
</VTKFile>
