<?xml version="1.0"?>
<VTKFile type="UnstructuredGrid" version="0.1" byte_order="LittleEndian">
   <UnstructuredGrid>
      <Piece NumberOfPoints="25" NumberOfCells="0" > 
         <Points> 
            <DataArray type="Float64" Name="Position" NumberOfComponents="3" format="ascii"> 
               0  0  20  
               0.75  0  20  
               1.5  0  20  
               2.25  0  20  
               3  0  20  
               0  0.75  20  
               0.75  0.75  20  
               1.5  0.75  20  
               2.25  0.75  20  
               3  0.75  20  
               0  1.5  20  
               0.75  1.5  20  
               1.5  1.5  20  
               2.25  1.5  20  
               3  1.5  20  
               0  2.25  20  
               0.75  2.25  20  
               1.5  2.25  20  
               2.25  2.25  20  
               3  2.25  20  
               0  3  20  
               0.75  3  20  
               1.5  3  20  
               2.25  3  20  
               3  3  20  
            </DataArray>
         </Points> 

         <Cells>
            <DataArray type="Int32" Name="connectivity" NumberOfComponents="1" format="ascii">
               
            </DataArray> 
            <DataArray type="Int32" Name="offsets" NumberOfComponents="1" format="ascii">
               
            </DataArray>
            <DataArray type="UInt8"  Name="types" NumberOfComponents="1" format="ascii">
               
            </DataArray>
         </Cells>
         <PointData Scalars="Rank " Vectors="Displacement Velocity Traction ">
            <DataArray type="UInt32" Name="Rank" NumberOfComponents="1" format="ascii">
               0 0 0 0 0 0 0 0 0 0 0 0 0 0 0 0 0 0 0 0 0 0 0 0 0 
            </DataArray>
            <DataArray type="Float64" Name="Displacement" NumberOfComponents="3" format="ascii">
               4.29531e-05 4.29281e-05 -0.000169279  -1.13089e-06 7.67721e-05 -0.000158929  -2.42542e-05 9.207e-05 -0.0001463  -1.88901e-05 6.3882e-05 -0.000155527  -4.95747e-05 7.68538e-05 -0.00016562  7.80889e-05 -1.04518e-06 -0.000160179  2.38273e-05 2.24942e-05 -0.000131593  -4.70133e-06 3.61516e-05 -0.000111952  -1.77907e-05 2.04478e-05 -0.000135411  -6.0713e-05 3.63996e-05 -0.000151796  9.46466e-05 -2.45047e-05 -0.000148112  3.8407e-05 -4.9426e-06 -0.000112161  3.46403e-06 2.57157e-06 -8.06083e-05  -3.01202e-05 6.33111e-06 -0.000112778  -8.62133e-05 2.6043e-05 -0.000145057  6.68842e-05 -2.13866e-05 -0.000157149  2.28836e-05 -1.86885e-05 -0.000135272  7.80453e-06 -3.10424e-05 -0.000112655  -1.77167e-05 -1.91878e-05 -0.000132417  -7.16937e-05 1.98493e-06 -0.000156869  7.92064e-05 -5.31596e-05 -0.000169028  3.87442e-05 -6.26488e-05 -0.000152858  2.72578e-05 -8.76714e-05 -0.000146072  2.39395e-06 -7.34354e-05 -0.00015813  -4.10748e-05 -4.17551e-05 -0.000165693  
            </DataArray>
            <DataArray type="Float64" Name="Velocity" NumberOfComponents="3" format="ascii">
               5.58928e-05 5.86826e-05 -0.000232623  -7.65359e-07 9.90371e-05 -0.000226396  -3.50616e-05 0.00011544 -0.000213375  -2.98046e-05 8.18619e-05 -0.000224751  -6.36358e-05 0.000105909 -0.000229656  9.7618e-05 2.20929e-06 -0.000226542  3.03597e-05 3.18035e-05 -0.000199229  -1.09387e-05 4.95651e-05 -0.000179613  -3.05692e-05 3.15181e-05 -0.000207217  -8.03645e-05 5.46991e-05 -0.000218365  0.000115076 -3.23547e-05 -0.000214386  4.8877e-05 -8.60579e-06 -0.000180011  -2.9277e-07 1.38109e-06 -0.000145261  -4.45453e-05 7.98418e-06 -0.000180475  -0.000109188 3.21145e-05 -0.000210575  8.28759e-05 -2.93491e-05 -0.00022632  3.15519e-05 -2.93477e-05 -0.000207583  6.94103e-06 -4.3938e-05 -0.00018064  -2.82649e-05 -2.81759e-05 -0.000200816  -9.27353e-05 -3.24317e-06 -0.000223064  0.000107367 -6.45095e-05 -0.000232687  5.5795e-05 -8.0144e-05 -0.000219341  3.17103e-05 -0.00010939 -0.000211665  -4.86049e-06 -9.37574e-05 -0.000224107  -5.88186e-05 -5.73707e-05 -0.000227774  
            </DataArray>
            <DataArray type="Float64" Name="Traction" NumberOfComponents="3" format="ascii">
               -0.000376238 -0.000352967 -0.0026366  -0.000136358 -0.000575994 -0.0026366  0.000115733 -0.000698355 -0.0026366  0.000116859 -0.000472539 -0.0026366  0.000304227 -0.000481109 -0.0026366  -0.00059368 -0.000117589 -0.0026366  -0.000245402 -0.000233068 -0.0026366  0.000177358 -0.000375215 -0.0026366  0.000220518 -0.000241833 -0.0026366  0.00042404 -0.000211635 -0.0026366  -0.000721138 0.000123735 -0.0026366  -0.000389282 0.000176274 -0.0026366  0.00014774 0.000147874 -0.0026366  0.000344655 4.12058e-05 -0.0026366  0.000654749 -1.74716e-05 -0.0026366  -0.000486998 0.000145464 -0.0026366  -0.000246288 0.000234923 -0.0026366  4.46662e-05 0.000354081 -0.0026366  0.000217687 0.000227036 -0.0026366  0.000544043 0.0001129 -0.0026366  -0.000496383 0.0003482 -0.0026366  -0.000216714 0.00045509 -0.0026366  -9.63389e-06 0.000677409 -0.0026366  0.000112797 0.000565273 -0.0026366  0.000332501 0.000343174 -0.0026366  
            </DataArray>
         </PointData> 
      </Piece>
   </UnstructuredGrid> 
</VTKFile>
