<?xml version="1.0"?>
<VTKFile type="UnstructuredGrid" version="0.1" byte_order="LittleEndian">
   <UnstructuredGrid>
      <Piece NumberOfPoints="25" NumberOfCells="0" > 
         <Points> 
            <DataArray type="Float64" Name="Position" NumberOfComponents="3" format="ascii"> 
               0  0  20  
               0.75  0  20  
               1.5  0  20  
               2.25  0  20  
               3  0  20  
               0  0.75  20  
               0.75  0.75  20  
               1.5  0.75  20  
               2.25  0.75  20  
               3  0.75  20  
               0  1.5  20  
               0.75  1.5  20  
               1.5  1.5  20  
               2.25  1.5  20  
               3  1.5  20  
               0  2.25  20  
               0.75  2.25  20  
               1.5  2.25  20  
               2.25  2.25  20  
               3  2.25  20  
               0  3  20  
               0.75  3  20  
               1.5  3  20  
               2.25  3  20  
               3  3  20  
            </DataArray>
         </Points> 

         <Cells>
            <DataArray type="Int32" Name="connectivity" NumberOfComponents="1" format="ascii">
               
            </DataArray> 
            <DataArray type="Int32" Name="offsets" NumberOfComponents="1" format="ascii">
               
            </DataArray>
            <DataArray type="UInt8"  Name="types" NumberOfComponents="1" format="ascii">
               
            </DataArray>
         </Cells>
         <PointData Scalars="Rank " Vectors="Displacement Velocity Traction ">
            <DataArray type="UInt32" Name="Rank" NumberOfComponents="1" format="ascii">
               0 0 0 0 0 0 0 0 0 0 0 0 0 0 0 0 0 0 0 0 0 0 0 0 0 
            </DataArray>
            <DataArray type="Float64" Name="Displacement" NumberOfComponents="3" format="ascii">
               6.4856e-06 5.50645e-06 -2.88379e-05  -3.81979e-07 1.29496e-05 -2.51275e-05  -2.62882e-06 1.78798e-05 -2.17765e-05  -1.01112e-06 1.1502e-05 -2.37629e-05  -8.12554e-06 1.0808e-05 -2.81325e-05  1.40767e-05 -1.45812e-06 -2.5657e-05  3.7104e-06 2.52312e-06 -1.77753e-05  5.08222e-07 5.23401e-06 -1.20055e-05  -6.10278e-07 1.60705e-06 -1.73094e-05  -1.04059e-05 3.53578e-06 -2.39053e-05  1.92512e-05 -3.74358e-06 -2.22369e-05  6.58609e-06 -4.21626e-07 -1.19628e-05  1.9158e-06 9.67427e-07 -4.09413e-06  -3.75498e-06 1.27445e-06 -1.22225e-05  -1.70401e-05 4.82698e-06 -2.23137e-05  1.25099e-05 -2.38484e-06 -2.3934e-05  2.71286e-06 -1.36467e-06 -1.7152e-05  2.22349e-06 -4.15984e-06 -1.21034e-05  -1.43443e-06 -1.8595e-06 -1.77114e-05  -1.29192e-05 2.19393e-06 -2.54468e-05  1.11362e-05 -9.5671e-06 -2.85746e-05  3.9867e-06 -1.12454e-05 -2.40361e-05  5.31405e-06 -1.7318e-05 -2.22344e-05  2.68089e-06 -1.29849e-05 -2.54371e-05  -5.17587e-06 -5.67278e-06 -2.90201e-05  
            </DataArray>
            <DataArray type="Float64" Name="Velocity" NumberOfComponents="3" format="ascii">
               1.86664e-05 1.82723e-05 -6.44118e-05  -8.09764e-07 3.25422e-05 -5.88476e-05  -1.02963e-05 3.81726e-05 -5.33136e-05  -8.07235e-06 2.66986e-05 -5.69018e-05  -2.19351e-05 3.18478e-05 -6.25684e-05  3.36344e-05 -1.12523e-06 -5.96578e-05  1.04962e-05 9.4252e-06 -4.62807e-05  -1.09525e-06 1.48046e-05 -3.79033e-05  -6.55885e-06 8.19239e-06 -4.75212e-05  -2.4828e-05 1.46107e-05 -5.53701e-05  3.99636e-05 -1.08544e-05 -5.44337e-05  1.64223e-05 -1.63653e-06 -3.79981e-05  2.31895e-06 1.36093e-06 -2.45868e-05  -1.15784e-05 2.55789e-06 -3.82531e-05  -3.51392e-05 1.15383e-05 -5.27245e-05  2.86386e-05 -9.74818e-06 -5.78003e-05  9.90476e-06 -7.426e-06 -4.73433e-05  3.87689e-06 -1.25419e-05 -3.81397e-05  -6.6362e-06 -7.96899e-06 -4.65882e-05  -2.97054e-05 1.80702e-06 -5.77876e-05  3.34841e-05 -2.41223e-05 -6.44602e-05  1.63117e-05 -2.63028e-05 -5.59479e-05  1.2681e-05 -3.64302e-05 -5.33876e-05  2.64837e-06 -3.11049e-05 -5.86807e-05  -1.6474e-05 -1.75112e-05 -6.24236e-05  
            </DataArray>
            <DataArray type="Float64" Name="Traction" NumberOfComponents="3" format="ascii">
               0 0 0  0 0 0  0 0 0  0 0 0  0 0 0  0 0 0  0 0 0  0 0 0  0 0 0  0 0 0  0 0 0  0 0 0  0 0 0  0 0 0  0 0 0  0 0 0  0 0 0  0 0 0  0 0 0  0 0 0  0 0 0  0 0 0  0 0 0  0 0 0  0 0 0  
            </DataArray>
         </PointData> 
      </Piece>
   </UnstructuredGrid> 
</VTKFile>
