<?xml version="1.0"?>
<VTKFile type="UnstructuredGrid" version="0.1" byte_order="LittleEndian">
   <UnstructuredGrid>
      <Piece NumberOfPoints="25" NumberOfCells="0" > 
         <Points> 
            <DataArray type="Float64" Name="Position" NumberOfComponents="3" format="ascii"> 
               0  0  15  
               0.75  0  15  
               1.5  0  15  
               2.25  0  15  
               3  0  15  
               0  0.75  15  
               0.75  0.75  15  
               1.5  0.75  15  
               2.25  0.75  15  
               3  0.75  15  
               0  1.5  15  
               0.75  1.5  15  
               1.5  1.5  15  
               2.25  1.5  15  
               3  1.5  15  
               0  2.25  15  
               0.75  2.25  15  
               1.5  2.25  15  
               2.25  2.25  15  
               3  2.25  15  
               0  3  15  
               0.75  3  15  
               1.5  3  15  
               2.25  3  15  
               3  3  15  
            </DataArray>
         </Points> 

         <Cells>
            <DataArray type="Int32" Name="connectivity" NumberOfComponents="1" format="ascii">
               
            </DataArray> 
            <DataArray type="Int32" Name="offsets" NumberOfComponents="1" format="ascii">
               
            </DataArray>
            <DataArray type="UInt8"  Name="types" NumberOfComponents="1" format="ascii">
               
            </DataArray>
         </Cells>
         <PointData Scalars="Rank " Vectors="Displacement Velocity Traction ">
            <DataArray type="UInt32" Name="Rank" NumberOfComponents="1" format="ascii">
               0 0 0 0 0 0 0 0 0 0 0 0 0 0 0 0 0 0 0 0 0 0 0 0 0 
            </DataArray>
            <DataArray type="Float64" Name="Displacement" NumberOfComponents="3" format="ascii">
               0.000252165 0.000156803 -1.73068e-05  0.000246073 3.80991e-05 -1.46034e-05  0.000218353 2.58096e-05 -1.23218e-05  0.000186345 1.0344e-05 -1.3653e-05  0.000176195 -5.71127e-05 -1.67852e-05  8.86691e-05 0.000152972 -1.49947e-05  9.11987e-05 4.03542e-05 -9.68646e-06  8.86049e-05 2.70792e-05 -5.52943e-06  8.90363e-05 5.51919e-06 -9.04391e-06  9.51603e-05 -6.71162e-05 -1.40265e-05  5.81691e-05 0.000131009 -1.25826e-05  6.21647e-05 3.0364e-05 -5.47417e-06  4.61878e-05 1.37854e-06 -1.49102e-07  3.50799e-05 -1.70634e-05 -5.68954e-06  4.21087e-05 -9.38033e-05 -1.29372e-05  2.54948e-05 0.000103355 -1.36687e-05  2.83931e-05 1.71384e-05 -8.92406e-06  2.47136e-05 -2.17702e-05 -5.5896e-06  2.34608e-05 -3.54654e-05 -9.5792e-06  2.57067e-05 -0.000109527 -1.51013e-05  -2.9093e-05 9.41761e-05 -1.69177e-05  -3.40192e-05 1.26665e-05 -1.40767e-05  -4.6812e-05 -2.79904e-05 -1.2761e-05  -4.86202e-05 -4.27679e-05 -1.49556e-05  -4.38765e-05 -0.000108798 -1.77936e-05  
            </DataArray>
            <DataArray type="Float64" Name="Velocity" NumberOfComponents="3" format="ascii">
               0.000170961 0.000146235 -4.63478e-05  0.000163783 3.40837e-05 -4.13976e-05  0.000136088 7.71486e-06 -3.69383e-05  0.000103743 -8.73647e-06 -3.96085e-05  9.17806e-05 -7.97775e-05 -4.49239e-05  4.50627e-05 0.000139654 -4.21221e-05  4.61217e-05 3.44225e-05 -3.11296e-05  3.42979e-05 1.43981e-05 -2.42952e-05  2.43622e-05 -9.46016e-06 -3.16391e-05  2.74642e-05 -9.01289e-05 -3.87222e-05  8.30792e-06 0.000113442 -3.7843e-05  1.6852e-05 1.81726e-05 -2.43444e-05  4.70152e-06 -4.22399e-06 -1.38038e-05  -4.21447e-06 -3.10021e-05 -2.45697e-05  6.48987e-06 -0.000118627 -3.67243e-05  -1.20618e-05 8.26311e-05 -4.02497e-05  -9.50006e-06 1.72425e-06 -3.14565e-05  -2.15619e-05 -2.12246e-05 -2.44416e-05  -3.27355e-05 -5.23732e-05 -3.12925e-05  -3.05971e-05 -0.000142854 -4.08076e-05  -6.51951e-05 7.15579e-05 -4.62839e-05  -7.32846e-05 1.30614e-07 -3.91374e-05  -9.41097e-05 -1.81507e-05 -3.71606e-05  -0.000109452 -5.65339e-05 -4.14512e-05  -0.000112003 -0.000149137 -4.50626e-05  
            </DataArray>
            <DataArray type="Float64" Name="Traction" NumberOfComponents="3" format="ascii">
               0.00335469 0.00316741 -0.00452324  -0.000412679 0.00349132 -0.00452324  -0.000406759 0.0037038 -0.00452324  -0.000414023 0.00400296 -0.00452324  -0.00435993 0.00384525 -0.00452324  0.00418671 -0.000434697 -0.00452324  0.000420835 0.000759533 -0.00452324  4.49129e-05 0.00138426 -0.00452324  -8.93687e-05 0.000748383 -0.00452324  -0.00341439 0.000479557 -0.00452324  0.00413742 -0.000582464 -0.00452324  0.000549018 8.72245e-05 -0.00452324  -7.02201e-05 1.26488e-06 -0.00452324  -0.000591913 -0.000218401 -0.00452324  -0.00397702 0.000166235 -0.00452324  0.00410717 -0.000540708 -0.00452324  0.000107071 -0.000501395 -0.00452324  -0.000277604 -0.00134049 -0.00452324  -0.000664009 -0.00133479 -0.00452324  -0.00203171 -0.00117364 -0.00452324  0.00412149 -0.00487173 -0.00452324  6.56126e-05 -0.00359462 -0.00452324  0.000286619 -0.00394099 -0.00452324  -0.000659606 -0.00267239 -0.00452324  6.42614e-05 -0.000355161 -0.00452324  
            </DataArray>
         </PointData> 
      </Piece>
   </UnstructuredGrid> 
</VTKFile>
