<?xml version="1.0"?>
<VTKFile type="UnstructuredGrid" version="0.1" byte_order="LittleEndian">
   <UnstructuredGrid>
      <Piece NumberOfPoints="25" NumberOfCells="0" > 
         <Points> 
            <DataArray type="Float64" Name="Position" NumberOfComponents="3" format="ascii"> 
               0  0  20  
               0.75  0  20  
               1.5  0  20  
               2.25  0  20  
               3  0  20  
               0  0.75  20  
               0.75  0.75  20  
               1.5  0.75  20  
               2.25  0.75  20  
               3  0.75  20  
               0  1.5  20  
               0.75  1.5  20  
               1.5  1.5  20  
               2.25  1.5  20  
               3  1.5  20  
               0  2.25  20  
               0.75  2.25  20  
               1.5  2.25  20  
               2.25  2.25  20  
               3  2.25  20  
               0  3  20  
               0.75  3  20  
               1.5  3  20  
               2.25  3  20  
               3  3  20  
            </DataArray>
         </Points> 

         <Cells>
            <DataArray type="Int32" Name="connectivity" NumberOfComponents="1" format="ascii">
               
            </DataArray> 
            <DataArray type="Int32" Name="offsets" NumberOfComponents="1" format="ascii">
               
            </DataArray>
            <DataArray type="UInt8"  Name="types" NumberOfComponents="1" format="ascii">
               
            </DataArray>
         </Cells>
         <PointData Scalars="Rank " Vectors="Displacement Velocity Traction ">
            <DataArray type="UInt32" Name="Rank" NumberOfComponents="1" format="ascii">
               0 0 0 0 0 0 0 0 0 0 0 0 0 0 0 0 0 0 0 0 0 0 0 0 0 
            </DataArray>
            <DataArray type="Float64" Name="Displacement" NumberOfComponents="3" format="ascii">
               1.26113e-08 1.26069e-08 -4.22179e-08  3.70561e-10 2.13734e-08 -3.8158e-08  -7.19556e-10 2.94548e-08 -3.43317e-08  -1.16334e-09 2.08632e-08 -3.80757e-08  -1.3266e-08 1.41021e-08 -4.21211e-08  2.13787e-08 3.72542e-10 -3.81582e-08  3.43276e-09 3.43416e-09 -2.789e-08  -2.04035e-10 6.31731e-09 -1.80719e-08  -3.2673e-09 3.20334e-09 -2.78811e-08  -2.08213e-08 1.80894e-09 -3.8088e-08  2.94518e-08 -7.1794e-10 -3.43319e-08  6.31758e-09 -2.02319e-10 -1.8072e-08  2.14684e-10 2.13989e-10 -2.39392e-09  -6.0786e-09 2.11371e-10 -1.80907e-08  -2.92907e-08 8.08002e-10 -3.43641e-08  2.08606e-08 -1.1638e-09 -3.80754e-08  3.20317e-09 -3.26808e-09 -2.78815e-08  2.13417e-10 -6.07904e-09 -1.80914e-08  -3.37497e-09 -3.37334e-09 -2.79034e-08  -2.13553e-08 -4.71993e-10 -3.81637e-08  1.41042e-08 -1.32682e-08 -4.21203e-08  1.80841e-09 -2.0822e-08 -3.80886e-08  8.1487e-10 -2.92954e-08 -3.43659e-08  -4.75259e-10 -2.13674e-08 -3.81646e-08  -1.26044e-08 -1.26111e-08 -4.22012e-08  
            </DataArray>
            <DataArray type="Float64" Name="Velocity" NumberOfComponents="3" format="ascii">
               5.73006e-08 5.7264e-08 -1.95756e-07  1.23844e-09 9.81344e-08 -1.76585e-07  -5.11009e-09 1.34112e-07 -1.58868e-07  -6.83143e-09 9.46008e-08 -1.75971e-07  -6.18178e-08 6.76263e-08 -1.95156e-07  9.81734e-08 1.2524e-09 -1.76586e-07  1.66861e-08 1.66972e-08 -1.29666e-07  -1.40889e-09 3.06335e-08 -8.57833e-08  -1.55408e-08 1.51261e-08 -1.29638e-07  -9.43139e-08 1.1267e-08 -1.76043e-07  1.3409e-07 -5.09828e-09 -1.5887e-07  3.06357e-08 -1.39453e-09 -8.57842e-08  1.45038e-09 1.44482e-09 -1.65239e-08  -2.89993e-08 1.4589e-09 -8.59167e-08  -1.32998e-07 5.69712e-09 -1.59087e-07  9.45792e-08 -6.8339e-09 -1.75968e-07  1.51236e-08 -1.55476e-08 -1.29641e-07  1.47599e-09 -2.90035e-08 -8.59215e-08  -1.62831e-08 -1.62723e-08 -1.29761e-07  -9.79935e-08 -1.93234e-09 -1.76622e-07  6.76414e-08 -6.18359e-08 -1.95149e-07  1.12632e-08 -9.43202e-08 -1.76048e-07  5.74682e-09 -1.33032e-07 -1.591e-07  -1.95634e-09 -9.80868e-08 -1.76629e-07  -5.72677e-08 -5.73246e-08 -1.95653e-07  
            </DataArray>
            <DataArray type="Float64" Name="Traction" NumberOfComponents="3" format="ascii">
               0 0 0  0 0 0  0 0 0  0 0 0  0 0 0  0 0 0  0 0 0  0 0 0  0 0 0  0 0 0  0 0 0  0 0 0  0 0 0  0 0 0  0 0 0  0 0 0  0 0 0  0 0 0  0 0 0  0 0 0  0 0 0  0 0 0  0 0 0  0 0 0  0 0 0  
            </DataArray>
         </PointData> 
      </Piece>
   </UnstructuredGrid> 
</VTKFile>
