<?xml version="1.0"?>
<VTKFile type="UnstructuredGrid" version="0.1" byte_order="LittleEndian">
   <UnstructuredGrid>
      <Piece NumberOfPoints="25" NumberOfCells="0" > 
         <Points> 
            <DataArray type="Float64" Name="Position" NumberOfComponents="3" format="ascii"> 
               0  0  20  
               0.75  0  20  
               1.5  0  20  
               2.25  0  20  
               3  0  20  
               0  0.75  20  
               0.75  0.75  20  
               1.5  0.75  20  
               2.25  0.75  20  
               3  0.75  20  
               0  1.5  20  
               0.75  1.5  20  
               1.5  1.5  20  
               2.25  1.5  20  
               3  1.5  20  
               0  2.25  20  
               0.75  2.25  20  
               1.5  2.25  20  
               2.25  2.25  20  
               3  2.25  20  
               0  3  20  
               0.75  3  20  
               1.5  3  20  
               2.25  3  20  
               3  3  20  
            </DataArray>
         </Points> 

         <Cells>
            <DataArray type="Int32" Name="connectivity" NumberOfComponents="1" format="ascii">
               
            </DataArray> 
            <DataArray type="Int32" Name="offsets" NumberOfComponents="1" format="ascii">
               
            </DataArray>
            <DataArray type="UInt8"  Name="types" NumberOfComponents="1" format="ascii">
               
            </DataArray>
         </Cells>
         <PointData Scalars="Rank " Vectors="Displacement Velocity Traction ">
            <DataArray type="UInt32" Name="Rank" NumberOfComponents="1" format="ascii">
               0 0 0 0 0 0 0 0 0 0 0 0 0 0 0 0 0 0 0 0 0 0 0 0 0 
            </DataArray>
            <DataArray type="Float64" Name="Displacement" NumberOfComponents="3" format="ascii">
               1.07756e-05 9.75078e-06 -4.38894e-05  -5.37223e-07 2.04055e-05 -3.90061e-05  -5.0177e-06 2.65839e-05 -3.44297e-05  -2.90844e-06 1.76074e-05 -3.7242e-05  -1.31021e-05 1.81893e-05 -4.27598e-05  2.17351e-05 -1.63584e-06 -3.9704e-05  6.11593e-06 4.73115e-06 -2.88987e-05  1.87398e-07 8.67262e-06 -2.12847e-05  -2.21724e-06 3.55721e-06 -2.87703e-05  -1.61125e-05 6.98846e-06 -3.70032e-05  2.83147e-05 -6.20662e-06 -3.51335e-05  1.03437e-05 -8.19883e-07 -2.12664e-05  2.37646e-06 1.25561e-06 -1.03997e-05  -6.48815e-06 1.85845e-06 -2.15804e-05  -2.50569e-05 7.42804e-06 -3.48063e-05  1.90268e-05 -4.62049e-06 -3.76195e-05  5.01296e-06 -3.13534e-06 -2.85802e-05  3.06326e-06 -7.08621e-06 -2.1441e-05  -3.0326e-06 -3.73374e-06 -2.89136e-05  -1.97144e-05 2.50722e-06 -3.90625e-05  1.88775e-05 -1.50049e-05 -4.36354e-05  7.80693e-06 -1.72548e-05 -3.7267e-05  8.1462e-06 -2.56083e-05 -3.4883e-05  3.14707e-06 -2.00889e-05 -3.92565e-05  -9.04006e-06 -9.73425e-06 -4.36005e-05  
            </DataArray>
            <DataArray type="Float64" Name="Velocity" NumberOfComponents="3" format="ascii">
               2.40856e-05 2.40286e-05 -8.57521e-05  -7.47036e-07 4.17958e-05 -7.96316e-05  -1.3529e-05 4.86399e-05 -7.29435e-05  -1.08477e-05 3.4186e-05 -7.7594e-05  -2.76831e-05 4.17549e-05 -8.33796e-05  4.27171e-05 -6.54568e-07 -8.04946e-05  1.34722e-05 1.25802e-05 -6.47265e-05  -2.11765e-06 1.94849e-05 -5.47052e-05  -9.47439e-06 1.12513e-05 -6.68462e-05  -3.20966e-05 1.98202e-05 -7.53326e-05  5.04198e-05 -1.37086e-05 -7.4241e-05  2.10359e-05 -2.34497e-06 -5.48525e-05  2.26178e-06 1.50865e-06 -3.83641e-05  -1.5691e-05 3.26851e-06 -5.51389e-05  -4.48376e-05 1.43966e-05 -7.19394e-05  3.63327e-05 -1.25313e-05 -7.87462e-05  1.30135e-05 -1.02307e-05 -6.67009e-05  4.48676e-06 -1.66423e-05 -5.50501e-05  -9.30859e-06 -1.07132e-05 -6.5203e-05  -3.80688e-05 1.31531e-06 -7.80805e-05  4.36913e-05 -3.00764e-05 -8.5792e-05  2.17665e-05 -3.36254e-05 -7.60757e-05  1.55458e-05 -4.62578e-05 -7.28224e-05  1.98828e-06 -3.97315e-05 -7.92066e-05  -2.20603e-05 -2.29775e-05 -8.30612e-05  
            </DataArray>
            <DataArray type="Float64" Name="Traction" NumberOfComponents="3" format="ascii">
               0 0 0  0 0 0  0 0 0  0 0 0  0 0 0  0 0 0  0 0 0  0 0 0  0 0 0  0 0 0  0 0 0  0 0 0  0 0 0  0 0 0  0 0 0  0 0 0  0 0 0  0 0 0  0 0 0  0 0 0  0 0 0  0 0 0  0 0 0  0 0 0  0 0 0  
            </DataArray>
         </PointData> 
      </Piece>
   </UnstructuredGrid> 
</VTKFile>
