<?xml version="1.0"?>
<VTKFile type="UnstructuredGrid" version="0.1" byte_order="LittleEndian">
   <UnstructuredGrid>
      <Piece NumberOfPoints="25" NumberOfCells="0" > 
         <Points> 
            <DataArray type="Float64" Name="Position" NumberOfComponents="3" format="ascii"> 
               0  0  20  
               0.75  0  20  
               1.5  0  20  
               2.25  0  20  
               3  0  20  
               0  0.75  20  
               0.75  0.75  20  
               1.5  0.75  20  
               2.25  0.75  20  
               3  0.75  20  
               0  1.5  20  
               0.75  1.5  20  
               1.5  1.5  20  
               2.25  1.5  20  
               3  1.5  20  
               0  2.25  20  
               0.75  2.25  20  
               1.5  2.25  20  
               2.25  2.25  20  
               3  2.25  20  
               0  3  20  
               0.75  3  20  
               1.5  3  20  
               2.25  3  20  
               3  3  20  
            </DataArray>
         </Points> 

         <Cells>
            <DataArray type="Int32" Name="connectivity" NumberOfComponents="1" format="ascii">
               
            </DataArray> 
            <DataArray type="Int32" Name="offsets" NumberOfComponents="1" format="ascii">
               
            </DataArray>
            <DataArray type="UInt8"  Name="types" NumberOfComponents="1" format="ascii">
               
            </DataArray>
         </Cells>
         <PointData Scalars="Rank " Vectors="Displacement Velocity Traction ">
            <DataArray type="UInt32" Name="Rank" NumberOfComponents="1" format="ascii">
               0 0 0 0 0 0 0 0 0 0 0 0 0 0 0 0 0 0 0 0 0 0 0 0 0 
            </DataArray>
            <DataArray type="Float64" Name="Displacement" NumberOfComponents="3" format="ascii">
               1.64344e-07 1.63829e-07 -6.24108e-07  -4.13217e-09 2.96691e-07 -5.66332e-07  -5.63678e-08 3.82569e-07 -5.11015e-07  -5.32529e-08 2.64486e-07 -5.57321e-07  -2.00947e-07 2.56352e-07 -6.24109e-07  2.97228e-07 -3.97146e-09 -5.664e-07  6.88533e-08 6.90277e-08 -4.34105e-07  -1.29711e-08 1.21337e-07 -3.28275e-07  -5.95531e-08 5.85615e-08 -4.37438e-07  -2.61999e-07 9.11216e-08 -5.56163e-07  3.8215e-07 -5.6135e-08 -5.10992e-07  1.21329e-07 -1.25652e-08 -3.28279e-07  9.65636e-09 9.54833e-09 -1.69898e-07  -1.08258e-07 1.31884e-08 -3.2977e-07  -3.73533e-07 5.94264e-08 -5.1237e-07  2.63909e-07 -5.32451e-08 -5.57193e-07  5.8443e-08 -5.97481e-08 -4.37494e-07  1.35688e-08 -1.08431e-07 -3.29771e-07  -6.48552e-08 -6.48624e-08 -4.35391e-07  -2.93807e-07 -1.19681e-09 -5.66323e-07  2.56402e-07 -2.01247e-07 -6.23948e-07  9.10996e-08 -2.62156e-07 -5.56283e-07  6.01616e-08 -3.74227e-07 -5.12592e-07  -1.35198e-09 -2.95579e-07 -5.66502e-07  -1.65726e-07 -1.66858e-07 -6.24294e-07  
            </DataArray>
            <DataArray type="Float64" Name="Velocity" NumberOfComponents="3" format="ascii">
               3.17409e-07 3.15958e-07 -1.28718e-06  -2.13793e-08 5.92652e-07 -1.18582e-06  -1.78579e-07 7.29428e-07 -1.07519e-06  -1.54955e-07 4.99354e-07 -1.15577e-06  -4.15539e-07 5.82324e-07 -1.2937e-06  5.94297e-07 -2.08699e-08 -1.18612e-06  1.6296e-07 1.63559e-07 -9.43287e-07  -3.81563e-08 2.77405e-07 -7.74003e-07  -1.38673e-07 1.40142e-07 -9.59005e-07  -4.91774e-07 2.62685e-07 -1.14873e-06  7.27801e-07 -1.77647e-07 -1.07502e-06  2.77317e-07 -3.64901e-08 -7.73998e-07  2.25471e-08 2.21579e-08 -5.2643e-07  -2.42184e-07 3.82166e-08 -7.78788e-07  -7.03809e-07 1.83938e-07 -1.07801e-06  4.97003e-07 -1.54923e-07 -1.15515e-06  1.39631e-07 -1.3944e-07 -9.59218e-07  3.96511e-08 -2.42956e-07 -7.78671e-07  -1.50738e-07 -1.51066e-07 -9.47869e-07  -5.81632e-07 7.43264e-09 -1.18507e-06  5.82152e-07 -4.16571e-07 -1.29303e-06  2.62668e-07 -4.92429e-07 -1.14926e-06  1.86541e-07 -7.06538e-07 -1.07883e-06  7.15685e-09 -5.8827e-07 -1.18583e-06  -3.23697e-07 -3.27675e-07 -1.28913e-06  
            </DataArray>
            <DataArray type="Float64" Name="Traction" NumberOfComponents="3" format="ascii">
               -1.3387e-06 -1.36128e-06 -1.34379e-05  -3.83275e-07 -2.34245e-06 -1.34379e-05  3.6946e-07 -3.0912e-06 -1.34379e-05  4.59364e-07 -2.08529e-06 -1.34379e-05  1.39713e-06 -1.73165e-06 -1.34379e-05  -2.34937e-06 -4.00913e-07 -1.34379e-05  -9.43184e-07 -9.35526e-07 -1.34379e-05  6.04953e-07 -1.50276e-06 -1.34379e-05  8.80986e-07 -8.75561e-07 -1.34379e-05  2.06002e-06 -6.81914e-07 -1.34379e-05  -3.12362e-06 3.7324e-07 -1.34379e-05  -1.52918e-06 6.0195e-07 -1.34379e-05  7.0931e-07 7.07036e-07 -1.34379e-05  1.49408e-06 3.76495e-07 -1.34379e-05  3.11795e-06 2.64381e-08 -1.34379e-05  -2.09188e-06 4.7086e-07 -1.34379e-05  -8.82356e-07 8.7355e-07 -1.34379e-05  3.7351e-07 1.48059e-06 -1.34379e-05  9.06755e-07 9.1178e-07 -1.34379e-05  2.3225e-06 3.53667e-07 -1.34379e-05  -1.6943e-06 1.41565e-06 -1.34379e-05  -6.43547e-07 2.0494e-06 -1.34379e-05  8.98588e-08 3.09266e-06 -1.34379e-05  4.51094e-07 2.34193e-06 -1.34379e-05  1.37125e-06 1.29381e-06 -1.34379e-05  
            </DataArray>
         </PointData> 
      </Piece>
   </UnstructuredGrid> 
</VTKFile>
