<?xml version="1.0"?>
<VTKFile type="UnstructuredGrid" version="0.1" byte_order="LittleEndian">
   <UnstructuredGrid>
      <Piece NumberOfPoints="25" NumberOfCells="0" > 
         <Points> 
            <DataArray type="Float64" Name="Position" NumberOfComponents="3" format="ascii"> 
               0  0  20  
               0.75  0  20  
               1.5  0  20  
               2.25  0  20  
               3  0  20  
               0  0.75  20  
               0.75  0.75  20  
               1.5  0.75  20  
               2.25  0.75  20  
               3  0.75  20  
               0  1.5  20  
               0.75  1.5  20  
               1.5  1.5  20  
               2.25  1.5  20  
               3  1.5  20  
               0  2.25  20  
               0.75  2.25  20  
               1.5  2.25  20  
               2.25  2.25  20  
               3  2.25  20  
               0  3  20  
               0.75  3  20  
               1.5  3  20  
               2.25  3  20  
               3  3  20  
            </DataArray>
         </Points> 

         <Cells>
            <DataArray type="Int32" Name="connectivity" NumberOfComponents="1" format="ascii">
               
            </DataArray> 
            <DataArray type="Int32" Name="offsets" NumberOfComponents="1" format="ascii">
               
            </DataArray>
            <DataArray type="UInt8"  Name="types" NumberOfComponents="1" format="ascii">
               
            </DataArray>
         </Cells>
         <PointData Scalars="Rank " Vectors="Displacement Velocity Traction ">
            <DataArray type="UInt32" Name="Rank" NumberOfComponents="1" format="ascii">
               0 0 0 0 0 0 0 0 0 0 0 0 0 0 0 0 0 0 0 0 0 0 0 0 0 
            </DataArray>
            <DataArray type="Float64" Name="Displacement" NumberOfComponents="3" format="ascii">
               1.78938e-08 1.78852e-08 -6.04036e-08  4.71403e-10 3.0454e-08 -5.45534e-08  -1.26243e-09 4.18219e-08 -4.90825e-08  -1.85563e-09 2.95728e-08 -5.4404e-08  -1.90203e-08 2.04668e-08 -6.02479e-08  3.04636e-08 4.74881e-10 -5.45539e-08  5.01326e-09 5.01589e-09 -3.99545e-08  -3.52099e-10 9.21501e-09 -2.61236e-08  -4.7279e-09 4.62217e-09 -3.99447e-08  -2.95009e-08 2.96444e-09 -5.44232e-08  4.18165e-08 -1.25952e-09 -4.90828e-08  9.21551e-09 -3.48713e-10 -2.61239e-08  3.64608e-10 3.63284e-10 -4.14183e-09  -8.80603e-09 3.64587e-10 -2.61566e-08  -4.1542e-08 1.41096e-09 -4.91374e-08  2.95677e-08 -1.85632e-09 -5.44034e-08  4.62167e-09 -4.7295e-09 -3.99454e-08  3.68605e-10 -8.80698e-09 -2.61578e-08  -4.91303e-09 -4.91028e-09 -3.99781e-08  -3.04201e-08 -6.45063e-10 -5.45628e-08  2.04705e-08 -1.90246e-08 -6.02464e-08  2.96349e-09 -2.95024e-08 -5.44243e-08  1.42323e-09 -4.15505e-08 -4.91406e-08  -6.50868e-10 -3.04427e-08 -5.45646e-08  -1.78845e-08 -1.78977e-08 -6.03769e-08  
            </DataArray>
            <DataArray type="Float64" Name="Velocity" NumberOfComponents="3" format="ascii">
               7.61295e-08 7.60635e-08 -2.63007e-07  1.33899e-09 1.31105e-07 -2.37086e-07  -8.32903e-09 1.78267e-07 -2.13305e-07  -1.03858e-08 1.25456e-07 -2.36038e-07  -8.32874e-08 9.25859e-08 -2.62153e-07  1.31172e-07 1.36211e-09 -2.37089e-07  2.30479e-08 2.30674e-08 -1.74633e-07  -2.25553e-09 4.22214e-08 -1.17012e-07  -2.12266e-08 2.06089e-08 -1.74641e-07  -1.25003e-07 1.74117e-08 -2.36133e-07  1.78229e-07 -8.30863e-09 -2.13307e-07  4.22247e-08 -2.22842e-09 -1.17013e-07  2.25815e-09 2.24809e-09 -2.66564e-08  -3.96425e-08 2.33284e-09 -1.17229e-07  -1.76517e-07 9.2279e-09 -2.13643e-07  1.25416e-07 -1.03887e-08 -2.36033e-07  2.06032e-08 -2.124e-08 -1.74646e-07  2.36465e-09 -3.9651e-08 -1.17237e-07  -2.24006e-08 -2.23835e-08 -1.7479e-07  -1.30855e-07 -2.43208e-09 -2.37141e-07  9.26108e-08 -8.33196e-08 -2.62142e-07  1.74054e-08 -1.25015e-07 -2.36141e-07  9.31199e-09 -1.76578e-07 -2.13666e-07  -2.47087e-09 -1.3102e-07 -2.37154e-07  -7.61035e-08 -7.62097e-08 -2.62862e-07  
            </DataArray>
            <DataArray type="Float64" Name="Traction" NumberOfComponents="3" format="ascii">
               -1.36294e-07 -1.38292e-07 -8.71851e-06  -3.74065e-08 -2.3494e-07 -8.71851e-06  2.52275e-08 -3.4058e-07 -8.71851e-06  3.07803e-08 -2.3157e-07 -8.71851e-06  1.29093e-07 -1.37106e-07 -8.71851e-06  -2.3543e-07 -3.91364e-08 -8.71851e-06  -9.19086e-08 -9.1342e-08 -8.71851e-06  7.02417e-08 -1.56547e-07 -8.71851e-06  9.0907e-08 -9.12418e-08 -8.71851e-06  2.29829e-07 -3.68608e-08 -8.71851e-06  -3.4213e-07 2.51857e-08 -8.71851e-06  -1.57614e-07 7.01077e-08 -8.71851e-06  1.07093e-07 1.06615e-07 -8.71851e-06  1.57931e-07 6.38266e-08 -8.71851e-06  3.43796e-07 2.5343e-08 -8.71851e-06  -2.3181e-07 3.09785e-08 -8.71851e-06  -9.13431e-08 9.06752e-08 -8.71851e-06  6.36718e-08 1.57067e-07 -8.71851e-06  9.04542e-08 9.11614e-08 -8.71851e-06  2.35113e-07 3.66647e-08 -8.71851e-06  -1.35875e-07 1.29605e-07 -8.71851e-06  -3.56461e-08 2.29677e-07 -8.71851e-06  2.84719e-08 3.41958e-07 -8.71851e-06  4.16712e-08 2.36336e-07 -8.71851e-06  1.3775e-07 1.34181e-07 -8.71851e-06  
            </DataArray>
         </PointData> 
      </Piece>
   </UnstructuredGrid> 
</VTKFile>
