<?xml version="1.0"?>
<VTKFile type="UnstructuredGrid" version="0.1" byte_order="LittleEndian">
   <UnstructuredGrid>
      <Piece NumberOfPoints="25" NumberOfCells="0" > 
         <Points> 
            <DataArray type="Float64" Name="Position" NumberOfComponents="3" format="ascii"> 
               0  0  15  
               0.75  0  15  
               1.5  0  15  
               2.25  0  15  
               3  0  15  
               0  0.75  15  
               0.75  0.75  15  
               1.5  0.75  15  
               2.25  0.75  15  
               3  0.75  15  
               0  1.5  15  
               0.75  1.5  15  
               1.5  1.5  15  
               2.25  1.5  15  
               3  1.5  15  
               0  2.25  15  
               0.75  2.25  15  
               1.5  2.25  15  
               2.25  2.25  15  
               3  2.25  15  
               0  3  15  
               0.75  3  15  
               1.5  3  15  
               2.25  3  15  
               3  3  15  
            </DataArray>
         </Points> 

         <Cells>
            <DataArray type="Int32" Name="connectivity" NumberOfComponents="1" format="ascii">
               
            </DataArray> 
            <DataArray type="Int32" Name="offsets" NumberOfComponents="1" format="ascii">
               
            </DataArray>
            <DataArray type="UInt8"  Name="types" NumberOfComponents="1" format="ascii">
               
            </DataArray>
         </Cells>
         <PointData Scalars="Rank " Vectors="Displacement Velocity Traction ">
            <DataArray type="UInt32" Name="Rank" NumberOfComponents="1" format="ascii">
               0 0 0 0 0 0 0 0 0 0 0 0 0 0 0 0 0 0 0 0 0 0 0 0 0 
            </DataArray>
            <DataArray type="Float64" Name="Displacement" NumberOfComponents="3" format="ascii">
               0 0 0  0 0 0  0 0 0  0 0 0  0 0 0  0 0 0  0 0 0  0 0 0  0 0 0  0 0 0  0 0 0  0 0 0  0 0 0  0 0 0  0 0 0  0 0 0  0 0 0  0 0 0  0 0 0  0 0 0  0 0 0  0 0 0  0 0 0  0 0 0  0 0 0  
            </DataArray>
            <DataArray type="Float64" Name="Velocity" NumberOfComponents="3" format="ascii">
               0 0 0  0 0 0  0 0 0  0 0 0  0 0 0  0 0 0  0 0 0  0 0 0  0 0 0  0 0 0  0 0 0  0 0 0  0 0 0  0 0 0  0 0 0  0 0 0  0 0 0  0 0 0  0 0 0  0 0 0  0 0 0  0 0 0  0 0 0  0 0 0  0 0 0  
            </DataArray>
            <DataArray type="Float64" Name="Traction" NumberOfComponents="3" format="ascii">
               8.98257e-07 9.61618e-07 -1.91654e-05  -1.8933e-07 9.95009e-07 -1.91654e-05  7.35914e-09 3.22854e-07 -1.91654e-05  4.0049e-08 6.21054e-07 -1.91654e-05  -7.0671e-07 8.07839e-07 -1.91654e-05  6.96121e-07 -2.60473e-07 -1.91654e-05  -1.47639e-07 -2.04208e-07 -1.91654e-05  -2.96918e-08 -2.10501e-07 -1.91654e-05  2.39943e-07 -8.0574e-08 -1.91654e-05  -1.14826e-06 1.04954e-07 -1.91654e-05  6.61861e-07 9.76429e-09 -1.91654e-05  -1.80734e-07 -1.19032e-08 -1.91654e-05  -5.99274e-08 -3.49297e-08 -1.91654e-05  4.55822e-07 2.70311e-08 -1.91654e-05  -1.48311e-06 5.21887e-08 -1.91654e-05  8.16466e-07 1.52661e-07 -1.91654e-05  -1.15411e-07 2.42621e-07 -1.91654e-05  1.70454e-08 3.46349e-07 -1.91654e-05  1.97369e-07 1.15281e-07 -1.91654e-05  -1.04435e-06 -1.02711e-07 -1.91654e-05  6.36792e-07 -5.6371e-07 -1.91654e-05  -8.82568e-09 -1.04455e-06 -1.91654e-05  5.14832e-08 -9.2592e-07 -1.91654e-05  -2.0573e-08 -5.53416e-07 -1.91654e-05  -5.66235e-07 -5.58178e-07 -1.91654e-05  
            </DataArray>
         </PointData> 
      </Piece>
   </UnstructuredGrid> 
</VTKFile>
