<?xml version="1.0"?>
<VTKFile type="UnstructuredGrid" version="0.1" byte_order="LittleEndian">
   <UnstructuredGrid>
      <Piece NumberOfPoints="25" NumberOfCells="0" > 
         <Points> 
            <DataArray type="Float64" Name="Position" NumberOfComponents="3" format="ascii"> 
               0  0  20  
               0.75  0  20  
               1.5  0  20  
               2.25  0  20  
               3  0  20  
               0  0.75  20  
               0.75  0.75  20  
               1.5  0.75  20  
               2.25  0.75  20  
               3  0.75  20  
               0  1.5  20  
               0.75  1.5  20  
               1.5  1.5  20  
               2.25  1.5  20  
               3  1.5  20  
               0  2.25  20  
               0.75  2.25  20  
               1.5  2.25  20  
               2.25  2.25  20  
               3  2.25  20  
               0  3  20  
               0.75  3  20  
               1.5  3  20  
               2.25  3  20  
               3  3  20  
            </DataArray>
         </Points> 

         <Cells>
            <DataArray type="Int32" Name="connectivity" NumberOfComponents="1" format="ascii">
               
            </DataArray> 
            <DataArray type="Int32" Name="offsets" NumberOfComponents="1" format="ascii">
               
            </DataArray>
            <DataArray type="UInt8"  Name="types" NumberOfComponents="1" format="ascii">
               
            </DataArray>
         </Cells>
         <PointData Scalars="Rank " Vectors="Displacement Velocity Traction ">
            <DataArray type="UInt32" Name="Rank" NumberOfComponents="1" format="ascii">
               0 0 0 0 0 0 0 0 0 0 0 0 0 0 0 0 0 0 0 0 0 0 0 0 0 
            </DataArray>
            <DataArray type="Float64" Name="Displacement" NumberOfComponents="3" format="ascii">
               4.64058e-07 5.54252e-07 -3.62259e-06  3.3171e-07 5.08037e-07 -4.29161e-06  -3.92033e-07 2.77654e-07 -4.63483e-06  -4.17868e-07 4.71667e-07 -4.60147e-06  -1.58758e-07 1.25996e-06 -3.62377e-06  3.43053e-07 3.84921e-07 -4.24921e-06  3.95824e-07 4.7164e-07 -5.01299e-06  -3.64704e-07 5.34789e-07 -5.51911e-06  -6.42462e-07 6.86953e-07 -5.41825e-06  -2.62447e-07 1.03769e-06 -4.30513e-06  1.6287e-07 -3.10189e-07 -4.59527e-06  4.82582e-07 -2.974e-07 -5.5285e-06  -1.75884e-07 -1.48271e-07 -5.92621e-06  -6.3222e-07 1.75828e-07 -5.56012e-06  -1.75247e-07 3.39541e-07 -4.53105e-06  3.87221e-07 -3.9792e-07 -4.55432e-06  6.33663e-07 -6.19759e-07 -5.42112e-06  1.68466e-07 -6.14104e-07 -5.5596e-06  -4.67831e-07 -4.43666e-07 -5.0817e-06  -4.23052e-07 -3.73665e-07 -4.25284e-06  1.16189e-06 -1.74855e-07 -3.60302e-06  9.75933e-07 -2.68901e-07 -4.33453e-06  3.15179e-07 -2.00711e-07 -4.5573e-06  -4.54492e-07 -4.45117e-07 -4.25812e-06  -6.65631e-07 -5.84667e-07 -3.5767e-06  
            </DataArray>
            <DataArray type="Float64" Name="Velocity" NumberOfComponents="3" format="ascii">
               -1.35952e-06 -1.28576e-06 2.81415e-06  5.04875e-07 -2.64185e-06 1.96936e-06  1.17181e-06 -3.08333e-06 1.31136e-06  9.70404e-07 -2.0379e-06 1.51752e-06  2.24875e-06 -2.42742e-06 2.76316e-06  -2.84285e-06 5.56139e-07 2.04508e-06  -7.1154e-07 -6.11449e-07 4.96688e-07  -2.34052e-08 -1.11821e-06 -3.16679e-07  4.08644e-07 -4.94623e-07 3.39244e-07  2.08759e-06 -1.06978e-06 1.57472e-06  -3.21522e-06 1.264e-06 1.37024e-06  -1.203e-06 3.96539e-08 -3.27224e-07  -2.46363e-07 -1.77951e-07 -1.3829e-06  7.91346e-07 -1.48712e-07 -3.20425e-07  2.88907e-06 -1.17662e-06 1.33949e-06  -2.12245e-06 1.01454e-06 1.56645e-06  -5.7626e-07 4.67401e-07 3.3361e-07  -2.24706e-07 8.82006e-07 -3.38034e-07  4.4591e-07 5.65657e-07 4.92684e-07  2.48054e-06 -4.79474e-07 1.94146e-06  -2.55997e-06 2.26126e-06 2.80401e-06  -1.20653e-06 2.14196e-06 1.57116e-06  -1.30225e-06 2.98569e-06 1.34488e-06  -6.38849e-07 2.62441e-06 1.99359e-06  1.11748e-06 1.31255e-06 2.74811e-06  
            </DataArray>
            <DataArray type="Float64" Name="Traction" NumberOfComponents="3" format="ascii">
               -2.46402e-06 -1.19742e-06 1.99297e-05  -3.37052e-06 1.53924e-06 1.99297e-05  1.21852e-06 3.76726e-06 1.99297e-05  -2.39026e-06 3.09781e-06 1.99297e-05  -8.37715e-06 -1.22249e-06 1.99297e-05  2.24395e-06 -1.41049e-06 1.99297e-05  4.7785e-07 5.87643e-07 1.99297e-05  3.55637e-06 -1.95632e-07 1.99297e-05  1.22638e-07 -1.45521e-06 1.99297e-05  -7.09555e-06 -2.04318e-06 1.99297e-05  3.30466e-06 2.50597e-06 1.99297e-05  -8.85686e-07 3.57176e-06 1.99297e-05  3.21138e-07 7.19088e-07 1.99297e-05  5.96936e-07 -2.38915e-06 1.99297e-05  -4.80806e-06 -4.65119e-07 1.99297e-05  2.94615e-06 -1.23936e-06 1.99297e-05  -1.9712e-06 4.55849e-07 1.99297e-05  -3.34335e-06 8.22343e-07 1.99297e-05  -1.71788e-06 -6.27677e-07 1.99297e-05  -3.60258e-06 1.0228e-06 1.99297e-05  -5.17436e-07 -6.93912e-06 1.99297e-05  -1.96476e-06 -6.33826e-06 1.99297e-05  -9.39292e-07 -4.21945e-06 1.99297e-05  8.22422e-07 -1.98279e-06 1.99297e-05  -6.32018e-07 -2.77968e-07 1.99297e-05  
            </DataArray>
         </PointData> 
      </Piece>
   </UnstructuredGrid> 
</VTKFile>
