<?xml version="1.0"?>
<VTKFile type="UnstructuredGrid" version="0.1" byte_order="LittleEndian">
   <UnstructuredGrid>
      <Piece NumberOfPoints="25" NumberOfCells="0" > 
         <Points> 
            <DataArray type="Float64" Name="Position" NumberOfComponents="3" format="ascii"> 
               0  0  15  
               0.75  0  15  
               1.5  0  15  
               2.25  0  15  
               3  0  15  
               0  0.75  15  
               0.75  0.75  15  
               1.5  0.75  15  
               2.25  0.75  15  
               3  0.75  15  
               0  1.5  15  
               0.75  1.5  15  
               1.5  1.5  15  
               2.25  1.5  15  
               3  1.5  15  
               0  2.25  15  
               0.75  2.25  15  
               1.5  2.25  15  
               2.25  2.25  15  
               3  2.25  15  
               0  3  15  
               0.75  3  15  
               1.5  3  15  
               2.25  3  15  
               3  3  15  
            </DataArray>
         </Points> 

         <Cells>
            <DataArray type="Int32" Name="connectivity" NumberOfComponents="1" format="ascii">
               
            </DataArray> 
            <DataArray type="Int32" Name="offsets" NumberOfComponents="1" format="ascii">
               
            </DataArray>
            <DataArray type="UInt8"  Name="types" NumberOfComponents="1" format="ascii">
               
            </DataArray>
         </Cells>
         <PointData Scalars="Rank " Vectors="Displacement Velocity Traction ">
            <DataArray type="UInt32" Name="Rank" NumberOfComponents="1" format="ascii">
               0 0 0 0 0 0 0 0 0 0 0 0 0 0 0 0 0 0 0 0 0 0 0 0 0 
            </DataArray>
            <DataArray type="Float64" Name="Displacement" NumberOfComponents="3" format="ascii">
               0 0 0  0 0 0  0 0 0  0 0 0  0 0 0  0 0 0  0 0 0  0 0 0  0 0 0  0 0 0  0 0 0  0 0 0  0 0 0  0 0 0  0 0 0  0 0 0  0 0 0  0 0 0  0 0 0  0 0 0  0 0 0  0 0 0  0 0 0  0 0 0  0 0 0  
            </DataArray>
            <DataArray type="Float64" Name="Velocity" NumberOfComponents="3" format="ascii">
               0 0 0  0 0 0  0 0 0  0 0 0  0 0 0  0 0 0  0 0 0  0 0 0  0 0 0  0 0 0  0 0 0  0 0 0  0 0 0  0 0 0  0 0 0  0 0 0  0 0 0  0 0 0  0 0 0  0 0 0  0 0 0  0 0 0  0 0 0  0 0 0  0 0 0  
            </DataArray>
            <DataArray type="Float64" Name="Traction" NumberOfComponents="3" format="ascii">
               0.000249673 0.00025921 0.000149914  -0.000110564 0.000144446 0.000149914  -2.50729e-05 4.98638e-05 0.000149914  4.7867e-05 0.000176308 0.000149914  -0.000304024 0.000322573 0.000149914  0.000316531 -8.82492e-05 0.000149914  3.95555e-05 -7.34745e-06 0.000149914  1.54184e-05 6.19116e-05 0.000149914  2.80219e-05 2.35604e-05 0.000149914  -0.00035476 1.88203e-05 0.000149914  0.000332612 -1.02748e-05 0.000149914  9.06156e-05 8.07453e-06 0.000149914  2.26986e-05 9.94374e-06 0.000149914  2.0283e-05 1.00977e-05 0.000149914  -0.000438949 -3.89934e-06 0.000149914  0.000351766 5.3983e-05 0.000149914  3.67139e-05 1.96179e-05 0.000149914  1.90001e-05 -2.79126e-05 0.000149914  3.7952e-05 8.27428e-09 0.000149914  -0.000100989 -4.77708e-05 0.000149914  0.000378617 -0.000328602 0.000149914  1.16696e-05 -0.000280904 0.000149914  3.66622e-05 -0.000266131 0.000149914  3.54665e-05 -2.07487e-05 0.000149914  0.000231086 0.000173667 0.000149914  
            </DataArray>
         </PointData> 
      </Piece>
   </UnstructuredGrid> 
</VTKFile>
