<?xml version="1.0"?>
<VTKFile type="UnstructuredGrid" version="0.1" byte_order="LittleEndian">
   <UnstructuredGrid>
      <Piece NumberOfPoints="25" NumberOfCells="0" > 
         <Points> 
            <DataArray type="Float64" Name="Position" NumberOfComponents="3" format="ascii"> 
               0  0  20  
               0.75  0  20  
               1.5  0  20  
               2.25  0  20  
               3  0  20  
               0  0.75  20  
               0.75  0.75  20  
               1.5  0.75  20  
               2.25  0.75  20  
               3  0.75  20  
               0  1.5  20  
               0.75  1.5  20  
               1.5  1.5  20  
               2.25  1.5  20  
               3  1.5  20  
               0  2.25  20  
               0.75  2.25  20  
               1.5  2.25  20  
               2.25  2.25  20  
               3  2.25  20  
               0  3  20  
               0.75  3  20  
               1.5  3  20  
               2.25  3  20  
               3  3  20  
            </DataArray>
         </Points> 

         <Cells>
            <DataArray type="Int32" Name="connectivity" NumberOfComponents="1" format="ascii">
               
            </DataArray> 
            <DataArray type="Int32" Name="offsets" NumberOfComponents="1" format="ascii">
               
            </DataArray>
            <DataArray type="UInt8"  Name="types" NumberOfComponents="1" format="ascii">
               
            </DataArray>
         </Cells>
         <PointData Scalars="Rank " Vectors="Displacement Velocity Traction ">
            <DataArray type="UInt32" Name="Rank" NumberOfComponents="1" format="ascii">
               0 0 0 0 0 0 0 0 0 0 0 0 0 0 0 0 0 0 0 0 0 0 0 0 0 
            </DataArray>
            <DataArray type="Float64" Name="Displacement" NumberOfComponents="3" format="ascii">
               0.000717803 0.000721281 -0.00332415  4.21812e-05 0.00121437 -0.00332507  -0.000388321 0.00143467 -0.00321307  -0.00037412 0.00104418 -0.00334713  -0.000793383 0.00132154 -0.00335299  0.00119693 4.35543e-05 -0.00331416  0.000374809 0.00038763 -0.00306634  -0.000135623 0.000609778 -0.00286306  -0.000405539 0.000412946 -0.00318778  -0.00102016 0.000694653 -0.00328008  0.00141522 -0.000380956 -0.00320042  0.000594997 -0.0001302 -0.00286263  -1.38979e-05 -6.89395e-06 -0.00246907  -0.000585739 9.42701e-05 -0.00287877  -0.00139713 0.000376781 -0.00320831  0.001024 -0.000352483 -0.00333595  0.000398754 -0.00039288 -0.00318867  8.64495e-05 -0.00057252 -0.00287878  -0.00037691 -0.000362647 -0.00309644  -0.00119256 -8.37823e-05 -0.00332496  0.00129916 -0.000766012 -0.00332561  0.00067547 -0.000999319 -0.00326925  0.000368922 -0.00137799 -0.00319626  -8.67766e-05 -0.00117286 -0.00331282  -0.000757154 -0.000751175 -0.00331258  
            </DataArray>
            <DataArray type="Float64" Name="Velocity" NumberOfComponents="3" format="ascii">
               0.000724634 0.000711388 -0.00330727  6.30428e-05 0.00118536 -0.00328559  -0.000324229 0.00141206 -0.00317672  -0.000322444 0.00102951 -0.00331118  -0.00075602 0.00123881 -0.00332117  0.0011866 4.99274e-05 -0.00328358  0.000370146 0.000367226 -0.00301849  -0.000103047 0.0005752 -0.00280505  -0.000361953 0.000387188 -0.00313347  -0.000983991 0.000628211 -0.00324878  0.00140849 -0.000332939 -0.00316916  0.000574656 -0.000111173 -0.00280277  3.72543e-06 -1.97284e-06 -0.00239834  -0.000538581 8.61033e-05 -0.00282361  -0.00136307 0.000340133 -0.00317265  0.00101986 -0.000318694 -0.00330034  0.000384332 -0.000363631 -0.00313035  9.00539e-05 -0.000538165 -0.00282197  -0.000342588 -0.000340848 -0.00305158  -0.00115376 -8.1019e-05 -0.00328696  0.00122614 -0.000743716 -0.00329948  0.000620724 -0.000978119 -0.00323955  0.000342812 -0.0013577 -0.00316451  -7.15119e-05 -0.0011462 -0.00328183  -0.000726021 -0.000735214 -0.00329023  
            </DataArray>
            <DataArray type="Float64" Name="Traction" NumberOfComponents="3" format="ascii">
               0 0 0  0 0 0  0 0 0  0 0 0  0 0 0  0 0 0  0 0 0  0 0 0  0 0 0  0 0 0  0 0 0  0 0 0  0 0 0  0 0 0  0 0 0  0 0 0  0 0 0  0 0 0  0 0 0  0 0 0  0 0 0  0 0 0  0 0 0  0 0 0  0 0 0  
            </DataArray>
         </PointData> 
      </Piece>
   </UnstructuredGrid> 
</VTKFile>
