<?xml version="1.0"?>
<VTKFile type="UnstructuredGrid" version="0.1" byte_order="LittleEndian">
   <UnstructuredGrid>
      <Piece NumberOfPoints="25" NumberOfCells="0" > 
         <Points> 
            <DataArray type="Float64" Name="Position" NumberOfComponents="3" format="ascii"> 
               0  0  15  
               0.75  0  15  
               1.5  0  15  
               2.25  0  15  
               3  0  15  
               0  0.75  15  
               0.75  0.75  15  
               1.5  0.75  15  
               2.25  0.75  15  
               3  0.75  15  
               0  1.5  15  
               0.75  1.5  15  
               1.5  1.5  15  
               2.25  1.5  15  
               3  1.5  15  
               0  2.25  15  
               0.75  2.25  15  
               1.5  2.25  15  
               2.25  2.25  15  
               3  2.25  15  
               0  3  15  
               0.75  3  15  
               1.5  3  15  
               2.25  3  15  
               3  3  15  
            </DataArray>
         </Points> 

         <Cells>
            <DataArray type="Int32" Name="connectivity" NumberOfComponents="1" format="ascii">
               
            </DataArray> 
            <DataArray type="Int32" Name="offsets" NumberOfComponents="1" format="ascii">
               
            </DataArray>
            <DataArray type="UInt8"  Name="types" NumberOfComponents="1" format="ascii">
               
            </DataArray>
         </Cells>
         <PointData Scalars="Rank " Vectors="Displacement Velocity Traction ">
            <DataArray type="UInt32" Name="Rank" NumberOfComponents="1" format="ascii">
               0 0 0 0 0 0 0 0 0 0 0 0 0 0 0 0 0 0 0 0 0 0 0 0 0 
            </DataArray>
            <DataArray type="Float64" Name="Displacement" NumberOfComponents="3" format="ascii">
               0.000631851 0.000548737 -0.000258411  0.000603485 9.79105e-05 -0.000246117  0.000492088 -1.13419e-05 -0.000228907  0.000361867 -4.73843e-05 -0.000242402  0.000314327 -0.000319046 -0.000253736  0.000116514 0.000521995 -0.000247272  0.000119471 9.92762e-05 -0.000209294  6.37717e-05 1.95269e-05 -0.0001826  1.35605e-05 -4.89265e-05 -0.000216207  2.40751e-05 -0.000364277 -0.000236294  -1.70985e-05 0.000418973 -0.000230903  1.65145e-05 3.18042e-05 -0.000182957  -3.7621e-05 -4.91329e-05 -0.000138735  -8.23901e-05 -0.000132962 -0.000183725  -4.33151e-05 -0.000482803 -0.000226673  -7.20952e-05 0.000296131 -0.000244446  -6.45217e-05 -3.62301e-05 -0.000216242  -0.00012279 -0.000111833 -0.000183671  -0.000177667 -0.000214792 -0.000210683  -0.000173755 -0.000576316 -0.00024292  -0.000316469 0.00025063 -0.000257924  -0.000354083 -3.92107e-05 -0.000237612  -0.000450696 -9.22322e-05 -0.000227952  -0.000520015 -0.000227889 -0.000244405  -0.000531764 -0.000597743 -0.00025318  
            </DataArray>
            <DataArray type="Float64" Name="Velocity" NumberOfComponents="3" format="ascii">
               0.000325418 0.000374115 -0.000323688  0.000301817 3.74085e-05 -0.000319148  0.000216702 -7.08557e-05 -0.00030327  0.000117488 -7.58886e-05 -0.000318386  7.94766e-05 -0.000276229 -0.000322271  -2.40391e-05 0.000349616 -0.00031831  -2.52603e-05 3.55231e-05 -0.00028628  -8.75784e-05 -3.69924e-05 -0.000261728  -0.000148254 -7.11094e-05 -0.000297767  -0.000145453 -0.000314997 -0.000309954  -0.000126062 0.000266231 -0.000303378  -9.39715e-05 -2.7536e-05 -0.00026221  -0.000132941 -7.48929e-05 -0.000217551  -0.000170108 -0.000132798 -0.000262779  -0.000137687 -0.000412225 -0.000300048  -0.000131018 0.000168697 -0.00031944  -0.00012768 -8.67064e-05 -0.000298476  -0.000191093 -0.000110212 -0.000263091  -0.000254917 -0.000196856 -0.000288455  -0.0002562 -0.000493389 -0.000315569  -0.000337939 0.000130666 -0.000323941  -0.000375814 -8.25682e-05 -0.000310483  -0.00047179 -7.66409e-05 -0.000300521  -0.000551093 -0.000199612 -0.0003157  -0.000572636 -0.000516994 -0.000318729  
            </DataArray>
            <DataArray type="Float64" Name="Traction" NumberOfComponents="3" format="ascii">
               0.0100643 0.0104676 -0.02522  0.00070036 0.0120339 -0.02522  -0.00239662 0.0125587 -0.02522  -0.00543905 0.0130556 -0.02522  -0.0149608 0.0137911 -0.02522  0.0127151 0.00125775 -0.02522  0.00292441 0.00381141 -0.02522  -0.000594903 0.00441053 -0.02522  -0.00418894 0.00381604 -0.02522  -0.0128827 0.004825 -0.02522  0.0128288 -0.00227563 -0.02522  0.00287693 -0.000110088 -0.02522  -0.000948884 -0.000393052 -0.02522  -0.00514909 -0.000756637 -0.02522  -0.0137222 0.00104929 -0.02522  0.0128358 -0.00542141 -0.02522  0.00253644 -0.00426225 -0.02522  -0.00123244 -0.00549408 -0.02522  -0.0052625 -0.00570901 -0.02522  -0.0107023 -0.00456474 -0.02522  0.013611 -0.0157155 -0.02522  0.00366775 -0.0127601 -0.02522  0.000866821 -0.0131789 -0.02522  -0.00402341 -0.0112784 -0.02522  -0.00633822 -0.00686111 -0.02522  
            </DataArray>
         </PointData> 
      </Piece>
   </UnstructuredGrid> 
</VTKFile>
