<?xml version="1.0"?>
<VTKFile type="UnstructuredGrid" version="0.1" byte_order="LittleEndian">
   <UnstructuredGrid>
      <Piece NumberOfPoints="25" NumberOfCells="0" > 
         <Points> 
            <DataArray type="Float64" Name="Position" NumberOfComponents="3" format="ascii"> 
               0  0  20  
               0.75  0  20  
               1.5  0  20  
               2.25  0  20  
               3  0  20  
               0  0.75  20  
               0.75  0.75  20  
               1.5  0.75  20  
               2.25  0.75  20  
               3  0.75  20  
               0  1.5  20  
               0.75  1.5  20  
               1.5  1.5  20  
               2.25  1.5  20  
               3  1.5  20  
               0  2.25  20  
               0.75  2.25  20  
               1.5  2.25  20  
               2.25  2.25  20  
               3  2.25  20  
               0  3  20  
               0.75  3  20  
               1.5  3  20  
               2.25  3  20  
               3  3  20  
            </DataArray>
         </Points> 

         <Cells>
            <DataArray type="Int32" Name="connectivity" NumberOfComponents="1" format="ascii">
               
            </DataArray> 
            <DataArray type="Int32" Name="offsets" NumberOfComponents="1" format="ascii">
               
            </DataArray>
            <DataArray type="UInt8"  Name="types" NumberOfComponents="1" format="ascii">
               
            </DataArray>
         </Cells>
         <PointData Scalars="Rank " Vectors="Displacement Velocity Traction ">
            <DataArray type="UInt32" Name="Rank" NumberOfComponents="1" format="ascii">
               0 0 0 0 0 0 0 0 0 0 0 0 0 0 0 0 0 0 0 0 0 0 0 0 0 
            </DataArray>
            <DataArray type="Float64" Name="Displacement" NumberOfComponents="3" format="ascii">
               0.000255489 0.000263752 -0.00116025  3.55633e-06 0.000450195 -0.00115374  -0.000158064 0.000531138 -0.00110477  -0.000143351 0.000381799 -0.00115512  -0.000295789 0.000493702 -0.00116664  0.000440382 1.08535e-05 -0.00114937  0.000135475 0.000143683 -0.00104775  -5.52848e-05 0.000227856 -0.000966841  -0.00015116 0.000150513 -0.00108875  -0.000378487 0.000259938 -0.00112931  0.000522742 -0.000149588 -0.00110194  0.000220485 -4.81259e-05 -0.000967662  -7.07764e-06 -4.57394e-07 -0.000817138  -0.000217394 3.63328e-05 -0.000971253  -0.000515822 0.000145929 -0.00109992  0.000375882 -0.000133846 -0.00115432  0.000144617 -0.000143412 -0.00109039  3.02998e-05 -0.000210456 -0.000971843  -0.000139377 -0.0001327 -0.00105651  -0.000438952 -2.3935e-05 -0.00114916  0.000487868 -0.000287212 -0.00116261  0.000253807 -0.000369937 -0.00112768  0.000140698 -0.000508206 -0.00109745  -3.01205e-05 -0.00043238 -0.00114563  -0.000277927 -0.000270511 -0.00115252  
            </DataArray>
            <DataArray type="Float64" Name="Velocity" NumberOfComponents="3" format="ascii">
               0.000238622 0.000241628 -0.00114114  1.408e-05 0.000406701 -0.00115485  -0.000138206 0.000478759 -0.00112243  -0.000136146 0.000351226 -0.00116595  -0.000270681 0.000455882 -0.00116025  0.000395888 1.55929e-05 -0.00114772  0.000124046 0.000132308 -0.00107967  -5.29271e-05 0.000208489 -0.00101909  -0.000147631 0.000145033 -0.00112378  -0.000348335 0.000245842 -0.00114347  0.000466443 -0.000133544 -0.00111457  0.000198823 -4.9393e-05 -0.00101893  -1.08581e-05 -6.13892e-06 -0.000894787  -0.000207565 3.19427e-05 -0.00102395  -0.000472763 0.000128714 -0.00112281  0.000338594 -0.000122557 -0.00115944  0.000135666 -0.000139857 -0.00112479  2.63913e-05 -0.000199486 -0.00102425  -0.000135471 -0.000126421 -0.00108997  -0.000406388 -3.39361e-05 -0.00115773  0.000442556 -0.000253892 -0.001144  0.000233634 -0.000335898 -0.00113748  0.000123049 -0.000461225 -0.00111582  -3.67464e-05 -0.000394249 -0.00114994  -0.000261554 -0.000256687 -0.00114249  
            </DataArray>
            <DataArray type="Float64" Name="Traction" NumberOfComponents="3" format="ascii">
               0 0 0  0 0 0  0 0 0  0 0 0  0 0 0  0 0 0  0 0 0  0 0 0  0 0 0  0 0 0  0 0 0  0 0 0  0 0 0  0 0 0  0 0 0  0 0 0  0 0 0  0 0 0  0 0 0  0 0 0  0 0 0  0 0 0  0 0 0  0 0 0  0 0 0  
            </DataArray>
         </PointData> 
      </Piece>
   </UnstructuredGrid> 
</VTKFile>
