<?xml version="1.0"?>
<VTKFile type="UnstructuredGrid" version="0.1" byte_order="LittleEndian">
   <UnstructuredGrid>
      <Piece NumberOfPoints="25" NumberOfCells="0" > 
         <Points> 
            <DataArray type="Float64" Name="Position" NumberOfComponents="3" format="ascii"> 
               0  0  20  
               0.75  0  20  
               1.5  0  20  
               2.25  0  20  
               3  0  20  
               0  0.75  20  
               0.75  0.75  20  
               1.5  0.75  20  
               2.25  0.75  20  
               3  0.75  20  
               0  1.5  20  
               0.75  1.5  20  
               1.5  1.5  20  
               2.25  1.5  20  
               3  1.5  20  
               0  2.25  20  
               0.75  2.25  20  
               1.5  2.25  20  
               2.25  2.25  20  
               3  2.25  20  
               0  3  20  
               0.75  3  20  
               1.5  3  20  
               2.25  3  20  
               3  3  20  
            </DataArray>
         </Points> 

         <Cells>
            <DataArray type="Int32" Name="connectivity" NumberOfComponents="1" format="ascii">
               
            </DataArray> 
            <DataArray type="Int32" Name="offsets" NumberOfComponents="1" format="ascii">
               
            </DataArray>
            <DataArray type="UInt8"  Name="types" NumberOfComponents="1" format="ascii">
               
            </DataArray>
         </Cells>
         <PointData Scalars="Rank " Vectors="Displacement Velocity Traction ">
            <DataArray type="UInt32" Name="Rank" NumberOfComponents="1" format="ascii">
               0 0 0 0 0 0 0 0 0 0 0 0 0 0 0 0 0 0 0 0 0 0 0 0 0 
            </DataArray>
            <DataArray type="Float64" Name="Displacement" NumberOfComponents="3" format="ascii">
               -1.67161e-06 -1.62063e-06 9.99363e-07  7.31191e-07 -3.02877e-06 -1.87107e-07  1.40351e-06 -3.23492e-06 -9.4571e-07  1.26055e-06 -2.21073e-06 -7.89419e-07  2.85449e-06 -2.65022e-06 8.98297e-07  -3.30477e-06 7.44543e-07 -7.04346e-08  -8.222e-07 -6.92676e-07 -2.03484e-06  -1.35805e-07 -1.1634e-06 -2.92001e-06  4.02662e-07 -5.13773e-07 -2.2847e-06  2.31074e-06 -1.07201e-06 -7.23193e-07  -3.45931e-06 1.50903e-06 -8.13566e-07  -1.2977e-06 -4.79377e-08 -2.92234e-06  -3.3966e-07 -2.28726e-07 -4.10238e-06  6.91512e-07 -8.25059e-08 -2.94579e-06  2.93394e-06 -1.28386e-06 -9.83026e-07  -2.41637e-06 1.32067e-06 -6.65625e-07  -6.79867e-07 4.92552e-07 -2.29745e-06  -2.25971e-07 8.78307e-07 -2.9676e-06  3.93552e-07 6.52575e-07 -2.04789e-06  2.65135e-06 -6.40815e-07 -3.25283e-07  -2.96215e-06 2.89194e-06 1.05076e-06  -1.37779e-06 2.43582e-06 -7.05947e-07  -1.5174e-06 3.15509e-06 -9.19366e-07  -9.25788e-07 2.93285e-06 -1.81822e-07  1.19267e-06 1.52496e-06 7.51425e-07  
            </DataArray>
            <DataArray type="Float64" Name="Velocity" NumberOfComponents="3" format="ascii">
               -2.40325e-06 -2.62183e-06 4.98299e-06  1.10065e-07 -3.40617e-06 5.09449e-06  1.93727e-06 -2.67964e-06 5.15892e-06  2.02373e-06 -2.4783e-06 5.13951e-06  2.90042e-06 -4.39157e-06 4.85523e-06  -3.3129e-06 -1.0098e-07 5.12079e-06  -1.4232e-06 -1.50443e-06 4.87752e-06  4.90122e-07 -1.83021e-06 5.24821e-06  1.54307e-06 -1.68966e-06 5.41057e-06  2.24913e-06 -2.69414e-06 4.60783e-06  -2.6805e-06 1.79444e-06 5.26716e-06  -1.83289e-06 3.96099e-07 5.28344e-06  5.11909e-08 7.88481e-08 5.18951e-06  1.53948e-06 -2.55803e-07 5.27331e-06  2.14567e-06 -1.49598e-06 4.81103e-06  -2.60223e-06 2.00006e-06 5.24763e-06  -1.78135e-06 1.56804e-06 5.40393e-06  -3.84722e-07 1.73912e-06 5.26383e-06  1.13579e-06 1.43241e-06 4.99442e-06  2.6581e-06 2.05657e-07 4.74131e-06  -4.66976e-06 2.95786e-06 5.09363e-06  -3.00475e-06 2.41133e-06 4.70723e-06  -1.72206e-06 2.49738e-06 5.00469e-06  3.85702e-08 3.07761e-06 4.98349e-06  2.19809e-06 2.41297e-06 4.42874e-06  
            </DataArray>
            <DataArray type="Float64" Name="Traction" NumberOfComponents="3" format="ascii">
               8.87818e-06 8.85422e-06 4.71953e-05  -6.63587e-06 2.85093e-05 4.71953e-05  -1.01243e-05 2.84957e-05 4.71953e-05  -1.45978e-05 2.12237e-05 4.71953e-05  -3.07377e-05 2.94955e-05 4.71953e-05  3.17487e-05 -5.77851e-06 4.71953e-05  1.19555e-05 1.0122e-05 4.71953e-05  -1.79148e-07 1.28487e-05 4.71953e-05  -8.15669e-06 7.96246e-06 4.71953e-05  -2.38808e-05 1.43021e-05 4.71953e-05  2.937e-05 -1.01274e-05 4.71953e-05  1.28343e-05 -1.15621e-06 4.71953e-05  -2.52186e-06 -1.82102e-06 4.71953e-05  -1.06035e-05 -7.65713e-07 4.71953e-05  -2.68154e-05 9.7331e-06 4.71953e-05  2.30796e-05 -1.53982e-05 4.71953e-05  8.53849e-06 -8.62706e-06 4.71953e-05  -2.33911e-06 -1.0848e-05 4.71953e-05  -1.02722e-05 -9.23568e-06 4.71953e-05  -2.68739e-05 3.4942e-06 4.71953e-05  3.15355e-05 -3.17126e-05 4.71953e-05  1.50092e-05 -2.40241e-05 4.71953e-05  8.14735e-06 -2.72248e-05 4.71953e-05  2.65911e-06 -2.62518e-05 4.71953e-05  -1.15251e-05 -1.18714e-05 4.71953e-05  
            </DataArray>
         </PointData> 
      </Piece>
   </UnstructuredGrid> 
</VTKFile>
