<?xml version="1.0"?>
<VTKFile type="UnstructuredGrid" version="0.1" byte_order="LittleEndian">
   <UnstructuredGrid>
      <Piece NumberOfPoints="25" NumberOfCells="0" > 
         <Points> 
            <DataArray type="Float64" Name="Position" NumberOfComponents="3" format="ascii"> 
               0  0  15  
               0.75  0  15  
               1.5  0  15  
               2.25  0  15  
               3  0  15  
               0  0.75  15  
               0.75  0.75  15  
               1.5  0.75  15  
               2.25  0.75  15  
               3  0.75  15  
               0  1.5  15  
               0.75  1.5  15  
               1.5  1.5  15  
               2.25  1.5  15  
               3  1.5  15  
               0  2.25  15  
               0.75  2.25  15  
               1.5  2.25  15  
               2.25  2.25  15  
               3  2.25  15  
               0  3  15  
               0.75  3  15  
               1.5  3  15  
               2.25  3  15  
               3  3  15  
            </DataArray>
         </Points> 

         <Cells>
            <DataArray type="Int32" Name="connectivity" NumberOfComponents="1" format="ascii">
               
            </DataArray> 
            <DataArray type="Int32" Name="offsets" NumberOfComponents="1" format="ascii">
               
            </DataArray>
            <DataArray type="UInt8"  Name="types" NumberOfComponents="1" format="ascii">
               
            </DataArray>
         </Cells>
         <PointData Scalars="Rank " Vectors="Displacement Velocity Traction ">
            <DataArray type="UInt32" Name="Rank" NumberOfComponents="1" format="ascii">
               0 0 0 0 0 0 0 0 0 0 0 0 0 0 0 0 0 0 0 0 0 0 0 0 0 
            </DataArray>
            <DataArray type="Float64" Name="Displacement" NumberOfComponents="3" format="ascii">
               0.000297553 0.000196956 -3.16525e-05  0.000289449 4.6979e-05 -2.76038e-05  0.000253955 2.69623e-05 -2.40443e-05  0.00021284 7.37486e-06 -2.61848e-05  0.000199294 -7.98691e-05 -3.0696e-05  9.93983e-05 0.000191214 -2.81904e-05  0.000102182 4.92911e-05 -1.97703e-05  9.59559e-05 3.02955e-05 -1.36654e-05  9.32105e-05 2.47292e-06 -1.93645e-05  0.000100098 -9.28261e-05 -2.6241e-05  5.87154e-05 0.000161857 -2.45647e-05  6.51755e-05 3.45984e-05 -1.36298e-05  4.57604e-05 -3.76299e-07 -5.22621e-06  3.20336e-05 -2.60707e-05 -1.39058e-05  4.20682e-05 -0.000127591 -2.45506e-05  2.10478e-05 0.000125513 -2.63999e-05  2.46067e-05 1.66891e-05 -1.91995e-05  1.72002e-05 -2.80686e-05 -1.37755e-05  1.24524e-05 -5.04562e-05 -1.97248e-05  1.52318e-05 -0.000150214 -2.7885e-05  -4.89446e-05 0.000113169 -3.125e-05  -5.62694e-05 1.18907e-05 -2.64202e-05  -7.52493e-05 -3.3121e-05 -2.45188e-05  -8.17244e-05 -5.88095e-05 -2.79402e-05  -7.78413e-05 -0.000151332 -3.17138e-05  
            </DataArray>
            <DataArray type="Float64" Name="Velocity" NumberOfComponents="3" format="ascii">
               0.000191532 0.000174424 -6.84542e-05  0.000182628 3.67283e-05 -6.27044e-05  0.000148231 1.40545e-06 -5.69677e-05  0.000107843 -1.5022e-05 -6.07594e-05  9.26882e-05 -0.000102015 -6.64043e-05  4.05136e-05 0.00016574 -6.35329e-05  4.14754e-05 3.68478e-05 -4.97375e-05  2.42764e-05 1.11968e-05 -4.10623e-05  8.83278e-06 -1.49304e-05 -5.11382e-05  1.1832e-05 -0.00011527 -5.91005e-05  -4.03829e-06 0.000132899 -5.81271e-05  7.10232e-06 1.55291e-05 -4.117e-05  -8.21769e-06 -9.88843e-06 -2.71995e-05  -2.02368e-05 -4.10081e-05 -4.14289e-05  -6.94701e-06 -0.000151302 -5.63053e-05  -2.3509e-05 9.4303e-05 -6.17081e-05  -2.0797e-05 -5.45279e-06 -5.09653e-05  -3.85133e-05 -2.91742e-05 -4.13168e-05  -5.52729e-05 -6.74143e-05 -5.00708e-05  -5.31713e-05 -0.000182165 -6.15612e-05  -9.34943e-05 8.00927e-05 -6.84035e-05  -0.000104585 -6.46917e-06 -5.97143e-05  -0.000133222 -2.29113e-05 -5.70174e-05  -0.000155183 -7.16357e-05 -6.25144e-05  -0.000159521 -0.000190612 -6.63445e-05  
            </DataArray>
            <DataArray type="Float64" Name="Traction" NumberOfComponents="3" format="ascii">
               0.00403463 0.00389287 -0.00645801  -0.000367645 0.00434457 -0.00645801  -0.00059007 0.00459045 -0.00645801  -0.0007898 0.00492233 -0.00645801  -0.00537401 0.00483019 -0.00645801  0.00504437 -0.000339153 -0.00645801  0.000594055 0.00101722 -0.00645801  -1.96441e-05 0.00165714 -0.00645801  -0.000389555 0.00100295 -0.00645801  -0.00428815 0.000825699 -0.00645801  0.00498685 -0.000756964 -0.00645801  0.000694976 6.98209e-05 -0.00645801  -0.000165974 -3.98035e-05 -0.00645801  -0.000956922 -0.00028349 -0.00645801  -0.00488341 0.000236453 -0.00645801  0.0049558 -0.000922189 -0.00645801  0.000245007 -0.000794107 -0.00645801  -0.000389579 -0.0017104 -0.00645801  -0.0010501 -0.001744 -0.00645801  -0.00278987 -0.00150585 -0.00645801  0.00503087 -0.00594322 -0.00645801  0.000292625 -0.00446395 -0.00645801  0.000325555 -0.00482822 -0.00645801  -0.000955238 -0.00348469 -0.00645801  -0.000435199 -0.000906652 -0.00645801  
            </DataArray>
         </PointData> 
      </Piece>
   </UnstructuredGrid> 
</VTKFile>
