<?xml version="1.0"?>
<VTKFile type="UnstructuredGrid" version="0.1" byte_order="LittleEndian">
   <UnstructuredGrid>
      <Piece NumberOfPoints="25" NumberOfCells="0" > 
         <Points> 
            <DataArray type="Float64" Name="Position" NumberOfComponents="3" format="ascii"> 
               0  0  20  
               0.75  0  20  
               1.5  0  20  
               2.25  0  20  
               3  0  20  
               0  0.75  20  
               0.75  0.75  20  
               1.5  0.75  20  
               2.25  0.75  20  
               3  0.75  20  
               0  1.5  20  
               0.75  1.5  20  
               1.5  1.5  20  
               2.25  1.5  20  
               3  1.5  20  
               0  2.25  20  
               0.75  2.25  20  
               1.5  2.25  20  
               2.25  2.25  20  
               3  2.25  20  
               0  3  20  
               0.75  3  20  
               1.5  3  20  
               2.25  3  20  
               3  3  20  
            </DataArray>
         </Points> 

         <Cells>
            <DataArray type="Int32" Name="connectivity" NumberOfComponents="1" format="ascii">
               
            </DataArray> 
            <DataArray type="Int32" Name="offsets" NumberOfComponents="1" format="ascii">
               
            </DataArray>
            <DataArray type="UInt8"  Name="types" NumberOfComponents="1" format="ascii">
               
            </DataArray>
         </Cells>
         <PointData Scalars="Rank " Vectors="Displacement Velocity Traction ">
            <DataArray type="UInt32" Name="Rank" NumberOfComponents="1" format="ascii">
               0 0 0 0 0 0 0 0 0 0 0 0 0 0 0 0 0 0 0 0 0 0 0 0 0 
            </DataArray>
            <DataArray type="Float64" Name="Displacement" NumberOfComponents="3" format="ascii">
               6.58408e-08 6.57335e-08 -2.34808e-07  5.49457e-10 1.15026e-07 -2.11576e-07  -1.16837e-08 1.53854e-07 -1.90457e-07  -1.29274e-08 1.07574e-07 -2.09925e-07  -7.49632e-08 8.73748e-08 -2.34108e-07  1.15133e-07 5.82791e-10 -2.11584e-07  2.247e-08 2.25017e-08 -1.57663e-07  -2.98631e-09 4.0733e-08 -1.10157e-07  -2.01278e-08 1.95094e-08 -1.57918e-07  -1.06993e-07 2.19823e-08 -2.09937e-07  1.53789e-07 -1.16489e-08 -1.90458e-07  4.07355e-08 -2.93186e-09 -1.10159e-07  2.73036e-09 2.71258e-09 -3.70936e-08  -3.74592e-08 3.07817e-09 -1.10464e-07  -1.51647e-07 1.2706e-08 -1.90862e-07  1.07495e-07 -1.29281e-08 -2.09913e-07  1.94954e-08 -2.01551e-08 -1.57927e-07  3.13707e-09 -3.7479e-08 -1.10472e-07  -2.15949e-08 -2.15768e-08 -1.57896e-07  -1.14586e-07 -1.92089e-09 -2.11629e-07  8.74054e-08 -7.50167e-08 -2.34087e-07  2.19742e-08 -1.07015e-07 -2.09953e-07  1.28373e-08 -1.51752e-07 -1.90898e-07  -1.96867e-09 -1.1487e-07 -2.11652e-07  -6.5932e-08 -6.6123e-08 -2.34702e-07  
            </DataArray>
            <DataArray type="Float64" Name="Velocity" NumberOfComponents="3" format="ascii">
               1.77268e-07 1.76727e-07 -6.70368e-07  -3.20588e-09 3.19321e-07 -6.04577e-07  -5.4789e-08 4.14401e-07 -5.44693e-07  -5.37053e-08 2.86236e-07 -5.96163e-07  -2.16511e-07 2.72142e-07 -6.68996e-07  3.19855e-07 -3.04835e-09 -6.04626e-07  7.25904e-08 7.27533e-08 -4.59454e-07  -1.32434e-08 1.2947e-07 -3.42085e-07  -6.25005e-08 6.05968e-08 -4.61643e-07  -2.83738e-07 9.30037e-08 -5.95709e-07  4.1405e-07 -5.46004e-08 -5.44688e-07  1.29474e-07 -1.29229e-08 -3.42093e-07  1.10161e-08 1.09198e-08 -1.67971e-07  -1.15502e-07 1.35742e-08 -3.43527e-07  -4.05002e-07 5.86378e-08 -5.46302e-07  2.85776e-07 -5.36985e-08 -5.9608e-07  6.0507e-08 -6.26612e-08 -4.6169e-07  1.3902e-08 -1.15627e-07 -3.43553e-07  -6.8618e-08 -6.85641e-08 -4.60603e-07  -3.16897e-07 -2.57336e-09 -6.04715e-07  2.72257e-07 -2.1679e-07 -6.68871e-07  9.2971e-08 -2.83861e-07 -5.95797e-07  5.93009e-08 -4.05574e-07 -5.46494e-07  -2.76986e-09 -3.18424e-07 -6.0485e-07  -1.78204e-07 -1.79238e-07 -6.70256e-07  
            </DataArray>
            <DataArray type="Float64" Name="Traction" NumberOfComponents="3" format="ascii">
               0 0 0  0 0 0  0 0 0  0 0 0  0 0 0  0 0 0  0 0 0  0 0 0  0 0 0  0 0 0  0 0 0  0 0 0  0 0 0  0 0 0  0 0 0  0 0 0  0 0 0  0 0 0  0 0 0  0 0 0  0 0 0  0 0 0  0 0 0  0 0 0  0 0 0  
            </DataArray>
         </PointData> 
      </Piece>
   </UnstructuredGrid> 
</VTKFile>
