<?xml version="1.0"?>
<VTKFile type="UnstructuredGrid" version="0.1" byte_order="LittleEndian">
   <UnstructuredGrid>
      <Piece NumberOfPoints="25" NumberOfCells="0" > 
         <Points> 
            <DataArray type="Float64" Name="Position" NumberOfComponents="3" format="ascii"> 
               0  0  20  
               0.75  0  20  
               1.5  0  20  
               2.25  0  20  
               3  0  20  
               0  0.75  20  
               0.75  0.75  20  
               1.5  0.75  20  
               2.25  0.75  20  
               3  0.75  20  
               0  1.5  20  
               0.75  1.5  20  
               1.5  1.5  20  
               2.25  1.5  20  
               3  1.5  20  
               0  2.25  20  
               0.75  2.25  20  
               1.5  2.25  20  
               2.25  2.25  20  
               3  2.25  20  
               0  3  20  
               0.75  3  20  
               1.5  3  20  
               2.25  3  20  
               3  3  20  
            </DataArray>
         </Points> 

         <Cells>
            <DataArray type="Int32" Name="connectivity" NumberOfComponents="1" format="ascii">
               
            </DataArray> 
            <DataArray type="Int32" Name="offsets" NumberOfComponents="1" format="ascii">
               
            </DataArray>
            <DataArray type="UInt8"  Name="types" NumberOfComponents="1" format="ascii">
               
            </DataArray>
         </Cells>
         <PointData Scalars="Rank " Vectors="Displacement Velocity Traction ">
            <DataArray type="UInt32" Name="Rank" NumberOfComponents="1" format="ascii">
               0 0 0 0 0 0 0 0 0 0 0 0 0 0 0 0 0 0 0 0 0 0 0 0 0 
            </DataArray>
            <DataArray type="Float64" Name="Displacement" NumberOfComponents="3" format="ascii">
               4.70072e-05 4.71901e-05 -0.000186273  -1.18489e-06 8.39651e-05 -0.000175498  -2.68102e-05 0.00010046 -0.000161932  -2.10691e-05 6.98343e-05 -0.000171985  -5.41979e-05 8.45678e-05 -0.000182415  8.51691e-05 -8.79582e-07 -0.000176751  2.60258e-05 2.48065e-05 -0.000146212  -5.51242e-06 3.976e-05 -0.000125157  -2.00344e-05 2.27498e-05 -0.000150616  -6.65673e-05 4.03944e-05 -0.000167791  0.000102996 -2.68591e-05 -0.00016381  4.19534e-05 -5.57938e-06 -0.000125394  3.42751e-06 2.66406e-06 -9.13286e-05  -3.33788e-05 6.91199e-06 -0.000126045  -9.41618e-05 2.83735e-05 -0.000160489  7.28956e-05 -2.35185e-05 -0.000173715  2.51757e-05 -2.08353e-05 -0.000150505  8.29987e-06 -3.42482e-05 -0.000125934  -1.97878e-05 -2.12413e-05 -0.000147151  -7.84441e-05 1.73424e-06 -0.000173202  8.7013e-05 -5.78291e-05 -0.000186029  4.28049e-05 -6.84745e-05 -0.000168919  2.95497e-05 -9.56231e-05 -0.000161578  2.01848e-06 -8.02475e-05 -0.00017453  -4.53649e-05 -4.59306e-05 -0.000182346  
            </DataArray>
            <DataArray type="Float64" Name="Velocity" NumberOfComponents="3" format="ascii">
               5.9458e-05 6.25653e-05 -0.000250536  -7.75071e-07 0.000105595 -0.000244579  -3.76238e-05 0.000123213 -0.000230933  -3.21407e-05 8.74521e-05 -0.00024306  -6.78872e-05 0.000113475 -0.000247797  0.000103835 2.48334e-06 -0.000244558  3.22061e-05 3.39702e-05 -0.000216183  -1.20824e-05 5.3059e-05 -0.000195545  -3.31855e-05 3.39309e-05 -0.000224872  -8.61279e-05 5.88774e-05 -0.00023625  0.00012248 -3.46114e-05 -0.000231802  5.20253e-05 -9.47405e-06 -0.000195963  -6.97389e-07 1.2736e-06 -0.000159198  -4.80839e-05 8.53784e-06 -0.000196452  -0.00011688 3.41918e-05 -0.000228028  8.81657e-05 -3.13016e-05 -0.000244566  3.36533e-05 -3.16775e-05 -0.000225308  7.1797e-06 -4.72163e-05 -0.000196648  -3.05975e-05 -3.02216e-05 -0.000217906  -9.92593e-05 -3.84027e-06 -0.000241182  0.000114692 -6.83822e-05 -0.000250647  5.96988e-05 -8.55752e-05 -0.000237173  3.3528e-05 -0.000116803 -0.000229035  -5.74798e-06 -0.00010003 -0.000242082  -6.31708e-05 -6.13889e-05 -0.000245647  
            </DataArray>
            <DataArray type="Float64" Name="Traction" NumberOfComponents="3" format="ascii">
               0 0 0  0 0 0  0 0 0  0 0 0  0 0 0  0 0 0  0 0 0  0 0 0  0 0 0  0 0 0  0 0 0  0 0 0  0 0 0  0 0 0  0 0 0  0 0 0  0 0 0  0 0 0  0 0 0  0 0 0  0 0 0  0 0 0  0 0 0  0 0 0  0 0 0  
            </DataArray>
         </PointData> 
      </Piece>
   </UnstructuredGrid> 
</VTKFile>
