<?xml version="1.0"?>
<VTKFile type="UnstructuredGrid" version="0.1" byte_order="LittleEndian">
   <UnstructuredGrid>
      <Piece NumberOfPoints="25" NumberOfCells="0" > 
         <Points> 
            <DataArray type="Float64" Name="Position" NumberOfComponents="3" format="ascii"> 
               0  0  20  
               0.75  0  20  
               1.5  0  20  
               2.25  0  20  
               3  0  20  
               0  0.75  20  
               0.75  0.75  20  
               1.5  0.75  20  
               2.25  0.75  20  
               3  0.75  20  
               0  1.5  20  
               0.75  1.5  20  
               1.5  1.5  20  
               2.25  1.5  20  
               3  1.5  20  
               0  2.25  20  
               0.75  2.25  20  
               1.5  2.25  20  
               2.25  2.25  20  
               3  2.25  20  
               0  3  20  
               0.75  3  20  
               1.5  3  20  
               2.25  3  20  
               3  3  20  
            </DataArray>
         </Points> 

         <Cells>
            <DataArray type="Int32" Name="connectivity" NumberOfComponents="1" format="ascii">
               
            </DataArray> 
            <DataArray type="Int32" Name="offsets" NumberOfComponents="1" format="ascii">
               
            </DataArray>
            <DataArray type="UInt8"  Name="types" NumberOfComponents="1" format="ascii">
               
            </DataArray>
         </Cells>
         <PointData Scalars="Rank " Vectors="Displacement Velocity Traction ">
            <DataArray type="UInt32" Name="Rank" NumberOfComponents="1" format="ascii">
               0 0 0 0 0 0 0 0 0 0 0 0 0 0 0 0 0 0 0 0 0 0 0 0 0 
            </DataArray>
            <DataArray type="Float64" Name="Displacement" NumberOfComponents="3" format="ascii">
               1.71576e-05 1.61834e-05 -6.71248e-05  -7.02419e-07 3.14844e-05 -6.07721e-05  -8.65401e-06 3.94478e-05 -5.44793e-05  -5.85543e-06 2.66655e-05 -5.85331e-05  -2.03749e-05 2.93857e-05 -6.53809e-05  3.29864e-05 -1.70726e-06 -6.16687e-05  9.67213e-06 8.12353e-06 -4.68856e-05  -4.85691e-07 1.39075e-05 -3.67096e-05  -4.88593e-06 6.64191e-06 -4.73886e-05  -2.46741e-05 1.23959e-05 -5.76603e-05  4.15667e-05 -9.81503e-06 -5.54985e-05  1.59062e-05 -1.48593e-06 -3.67331e-05  2.86552e-06 1.61819e-06 -2.15925e-05  -1.07788e-05 2.72578e-06 -3.71175e-05  -3.69418e-05 1.11879e-05 -5.45628e-05  2.85907e-05 -7.93605e-06 -5.9208e-05  8.49122e-06 -5.94718e-06 -4.71737e-05  4.17673e-06 -1.15793e-05 -3.69629e-05  -5.61908e-06 -6.63658e-06 -4.70374e-05  -2.98163e-05 2.715e-06 -6.04014e-05  3.05483e-05 -2.28372e-05 -6.68761e-05  1.36812e-05 -2.61574e-05 -5.81161e-05  1.21558e-05 -3.78226e-05 -5.48692e-05  3.46841e-06 -3.05968e-05 -6.088e-05  -1.50196e-05 -1.58887e-05 -6.61209e-05  
            </DataArray>
            <DataArray type="Float64" Name="Velocity" NumberOfComponents="3" format="ascii">
               3.12756e-05 3.17803e-05 -0.000116088  -6.9782e-07 5.43594e-05 -0.000109488  -1.80502e-05 6.30453e-05 -0.000101284  -1.47476e-05 4.44507e-05 -0.000107412  -3.54459e-05 5.54505e-05 -0.000113163  5.49215e-05 2.56879e-08 -0.000110337  1.73692e-05 1.68526e-05 -9.16087e-05  -3.75365e-06 2.59617e-05 -7.93904e-05  -1.37193e-05 1.55313e-05 -9.4968e-05  -4.22565e-05 2.71368e-05 -0.000104179  6.46088e-05 -1.76247e-05 -0.000102706  2.72322e-05 -3.4594e-06 -7.96043e-05  1.95787e-06 1.62711e-06 -5.89997e-05  -2.15876e-05 4.26473e-06 -7.99296e-05  -5.83813e-05 1.824e-05 -9.97564e-05  4.66627e-05 -1.62361e-05 -0.000108825  1.71592e-05 -1.41896e-05 -9.49013e-05  5.16196e-06 -2.23748e-05 -7.98867e-05  -1.31654e-05 -1.4481e-05 -9.23198e-05  -4.96496e-05 4.77731e-07 -0.000107351  5.76e-05 -3.78734e-05 -0.000116094  2.9211e-05 -4.36618e-05 -0.000105092  1.92374e-05 -5.97936e-05 -0.000100851  7.74405e-07 -5.14796e-05 -0.000108675  -2.98582e-05 -3.0438e-05 -0.000112605  
            </DataArray>
            <DataArray type="Float64" Name="Traction" NumberOfComponents="3" format="ascii">
               0 0 0  0 0 0  0 0 0  0 0 0  0 0 0  0 0 0  0 0 0  0 0 0  0 0 0  0 0 0  0 0 0  0 0 0  0 0 0  0 0 0  0 0 0  0 0 0  0 0 0  0 0 0  0 0 0  0 0 0  0 0 0  0 0 0  0 0 0  0 0 0  0 0 0  
            </DataArray>
         </PointData> 
      </Piece>
   </UnstructuredGrid> 
</VTKFile>
