<?xml version="1.0"?>
<VTKFile type="UnstructuredGrid" version="0.1" byte_order="LittleEndian">
   <UnstructuredGrid>
      <Piece NumberOfPoints="25" NumberOfCells="0" > 
         <Points> 
            <DataArray type="Float64" Name="Position" NumberOfComponents="3" format="ascii"> 
               0  0  20  
               0.75  0  20  
               1.5  0  20  
               2.25  0  20  
               3  0  20  
               0  0.75  20  
               0.75  0.75  20  
               1.5  0.75  20  
               2.25  0.75  20  
               3  0.75  20  
               0  1.5  20  
               0.75  1.5  20  
               1.5  1.5  20  
               2.25  1.5  20  
               3  1.5  20  
               0  2.25  20  
               0.75  2.25  20  
               1.5  2.25  20  
               2.25  2.25  20  
               3  2.25  20  
               0  3  20  
               0.75  3  20  
               1.5  3  20  
               2.25  3  20  
               3  3  20  
            </DataArray>
         </Points> 

         <Cells>
            <DataArray type="Int32" Name="connectivity" NumberOfComponents="1" format="ascii">
               
            </DataArray> 
            <DataArray type="Int32" Name="offsets" NumberOfComponents="1" format="ascii">
               
            </DataArray>
            <DataArray type="UInt8"  Name="types" NumberOfComponents="1" format="ascii">
               
            </DataArray>
         </Cells>
         <PointData Scalars="Rank " Vectors="Displacement Velocity Traction ">
            <DataArray type="UInt32" Name="Rank" NumberOfComponents="1" format="ascii">
               0 0 0 0 0 0 0 0 0 0 0 0 0 0 0 0 0 0 0 0 0 0 0 0 0 
            </DataArray>
            <DataArray type="Float64" Name="Displacement" NumberOfComponents="3" format="ascii">
               0.00158653 0.00157739 -0.00711398  0.000101501 0.00265063 -0.00702599  -0.000735957 0.00317803 -0.00675316  -0.000712994 0.00230118 -0.007064  -0.00170119 0.00274048 -0.00714003  0.00264138 9.13576e-05 -0.00701793  0.000796916 0.000802277 -0.0063706  -0.000237023 0.00126969 -0.00584568  -0.000797111 0.000836819 -0.00660284  -0.00222291 0.00136214 -0.00693143  0.00316307 -0.000738832 -0.00673882  0.00126014 -0.000240476 -0.00584323  2.47086e-06 2.00928e-06 -0.00488392  -0.00118996 0.000187313 -0.00588085  -0.00307417 0.000746848 -0.00673918  0.0022799 -0.000696451 -0.00704713  0.000825343 -0.000790666 -0.00660019  0.000185518 -0.00118144 -0.00587915  -0.000754212 -0.000743694 -0.00643449  -0.00258174 -0.000158231 -0.00702018  0.00271535 -0.00167309 -0.00710362  0.00134382 -0.00220462 -0.00691619  0.000744006 -0.00305774 -0.00672461  -0.000152416 -0.00256308 -0.00700842  -0.00161646 -0.00162021 -0.0070737  
            </DataArray>
            <DataArray type="Float64" Name="Velocity" NumberOfComponents="3" format="ascii">
               0.00210768 0.00208583 -0.00887644  0.000108067 0.00352608 -0.00854829  -0.000780293 0.00434233 -0.00809997  -0.00075077 0.00310614 -0.00856188  -0.00223087 0.00334287 -0.00885039  0.00354982 8.93498e-05 -0.00855946  0.000980437 0.000961165 -0.00744027  -0.000213951 0.00155379 -0.00653279  -0.000885599 0.000957146 -0.00765857  -0.00298669 0.0014724 -0.00842475  0.00436063 -0.000800852 -0.0081042  0.00157051 -0.000231057 -0.00652939  5.58169e-05 4.00088e-05 -0.00499872  -0.00140687 0.000206284 -0.00657331  -0.00418002 0.000832759 -0.00807471  0.00311473 -0.000771118 -0.00855789  0.000968873 -0.000902696 -0.00765159  0.000219677 -0.0014219 -0.00657011  -0.000867134 -0.000880711 -0.00750962  -0.00340883 -0.000141924 -0.00852631  0.00335034 -0.00224396 -0.00884969  0.00148425 -0.00300204 -0.00842277  0.000844514 -0.00419513 -0.00807714  -0.000127148 -0.00342133 -0.00853369  -0.00207989 -0.00209772 -0.00880217  
            </DataArray>
            <DataArray type="Float64" Name="Traction" NumberOfComponents="3" format="ascii">
               0 0 0  0 0 0  0 0 0  0 0 0  0 0 0  0 0 0  0 0 0  0 0 0  0 0 0  0 0 0  0 0 0  0 0 0  0 0 0  0 0 0  0 0 0  0 0 0  0 0 0  0 0 0  0 0 0  0 0 0  0 0 0  0 0 0  0 0 0  0 0 0  0 0 0  
            </DataArray>
         </PointData> 
      </Piece>
   </UnstructuredGrid> 
</VTKFile>
