<?xml version="1.0"?>
<VTKFile type="UnstructuredGrid" version="0.1" byte_order="LittleEndian">
   <UnstructuredGrid>
      <Piece NumberOfPoints="25" NumberOfCells="0" > 
         <Points> 
            <DataArray type="Float64" Name="Position" NumberOfComponents="3" format="ascii"> 
               0  0  20  
               0.75  0  20  
               1.5  0  20  
               2.25  0  20  
               3  0  20  
               0  0.75  20  
               0.75  0.75  20  
               1.5  0.75  20  
               2.25  0.75  20  
               3  0.75  20  
               0  1.5  20  
               0.75  1.5  20  
               1.5  1.5  20  
               2.25  1.5  20  
               3  1.5  20  
               0  2.25  20  
               0.75  2.25  20  
               1.5  2.25  20  
               2.25  2.25  20  
               3  2.25  20  
               0  3  20  
               0.75  3  20  
               1.5  3  20  
               2.25  3  20  
               3  3  20  
            </DataArray>
         </Points> 

         <Cells>
            <DataArray type="Int32" Name="connectivity" NumberOfComponents="1" format="ascii">
               
            </DataArray> 
            <DataArray type="Int32" Name="offsets" NumberOfComponents="1" format="ascii">
               
            </DataArray>
            <DataArray type="UInt8"  Name="types" NumberOfComponents="1" format="ascii">
               
            </DataArray>
         </Cells>
         <PointData Scalars="Rank " Vectors="Displacement Velocity Traction ">
            <DataArray type="UInt32" Name="Rank" NumberOfComponents="1" format="ascii">
               0 0 0 0 0 0 0 0 0 0 0 0 0 0 0 0 0 0 0 0 0 0 0 0 0 
            </DataArray>
            <DataArray type="Float64" Name="Displacement" NumberOfComponents="3" format="ascii">
               -1.72758e-07 -6.46788e-08 -2.24957e-06  5.20584e-07 -6.57224e-07 -3.21178e-06  1.60926e-07 -1.00766e-06 -3.78555e-06  6.12855e-08 -4.23468e-07 -3.68326e-06  8.35414e-07 9.72475e-08 -2.27707e-06  -8.93858e-07 5.86762e-07 -3.13813e-06  4.57151e-08 1.58769e-07 -4.47469e-06  -3.40991e-07 1.25379e-08 -5.24733e-06  -3.98939e-07 3.97372e-07 -4.90355e-06  6.29047e-07 4.71704e-07 -3.40082e-06  -1.1741e-06 2.74931e-07 -3.71896e-06  -7.54886e-08 -2.51128e-07 -5.2593e-06  -2.65969e-07 -2.06763e-07 -6.03835e-06  -2.47095e-07 9.79914e-08 -5.28679e-06  1.00577e-06 -1.98979e-07 -3.69002e-06  -5.45363e-07 1.00626e-07 -3.61487e-06  3.07007e-07 -3.50175e-07 -4.90943e-06  5.08713e-08 -1.82527e-07 -5.29468e-06  -2.38444e-07 -1.51976e-07 -4.53732e-06  6.43402e-07 -5.43943e-07 -3.20001e-06  -6.10076e-08 8.30658e-07 -2.23141e-06  3.43215e-07 6.55021e-07 -3.42562e-06  -2.85052e-07 1.03784e-06 -3.70528e-06  -6.95273e-07 6.98156e-07 -3.17369e-06  -1.29734e-07 3.74133e-08 -2.25445e-06  
            </DataArray>
            <DataArray type="Float64" Name="Velocity" NumberOfComponents="3" format="ascii">
               -2.05605e-06 -2.0411e-06 4.52121e-06  4.91724e-07 -3.58303e-06 3.81365e-06  1.76701e-06 -3.76934e-06 3.2515e-06  1.58548e-06 -2.7461e-06 3.41532e-06  3.05566e-06 -3.77987e-06 4.43072e-06  -3.75656e-06 5.02775e-07 3.90254e-06  -1.1591e-06 -1.06564e-06 2.41157e-06  1.53221e-07 -1.66645e-06 1.80973e-06  9.00942e-07 -1.05872e-06 2.45286e-06  2.67535e-06 -1.94767e-06 3.27657e-06  -3.91003e-06 1.83999e-06 3.33835e-06  -1.77033e-06 2.06759e-07 1.8079e-06  -2.27525e-07 -1.29276e-07 8.24709e-07  1.26551e-06 -2.61203e-07 1.82167e-06  3.40481e-06 -1.67438e-06 3.17274e-06  -2.86375e-06 1.64273e-06 3.48205e-06  -1.1754e-06 9.79703e-07 2.44241e-06  -3.97268e-07 1.42388e-06 1.79531e-06  7.83618e-07 9.98707e-07 2.44916e-06  3.20723e-06 -4.11513e-07 3.69038e-06  -3.97308e-06 3.10475e-06 4.52853e-06  -2.17045e-06 2.79546e-06 3.30667e-06  -1.87809e-06 3.61866e-06 3.23046e-06  -6.26711e-07 3.47639e-06 3.81055e-06  1.75961e-06 2.02242e-06 4.30673e-06  
            </DataArray>
            <DataArray type="Float64" Name="Traction" NumberOfComponents="3" format="ascii">
               0 0 0  0 0 0  0 0 0  0 0 0  0 0 0  0 0 0  0 0 0  0 0 0  0 0 0  0 0 0  0 0 0  0 0 0  0 0 0  0 0 0  0 0 0  0 0 0  0 0 0  0 0 0  0 0 0  0 0 0  0 0 0  0 0 0  0 0 0  0 0 0  0 0 0  
            </DataArray>
         </PointData> 
      </Piece>
   </UnstructuredGrid> 
</VTKFile>
