<?xml version="1.0"?>
<VTKFile type="UnstructuredGrid" version="0.1" byte_order="LittleEndian">
   <UnstructuredGrid>
      <Piece NumberOfPoints="25" NumberOfCells="0" > 
         <Points> 
            <DataArray type="Float64" Name="Position" NumberOfComponents="3" format="ascii"> 
               0  0  20  
               0.75  0  20  
               1.5  0  20  
               2.25  0  20  
               3  0  20  
               0  0.75  20  
               0.75  0.75  20  
               1.5  0.75  20  
               2.25  0.75  20  
               3  0.75  20  
               0  1.5  20  
               0.75  1.5  20  
               1.5  1.5  20  
               2.25  1.5  20  
               3  1.5  20  
               0  2.25  20  
               0.75  2.25  20  
               1.5  2.25  20  
               2.25  2.25  20  
               3  2.25  20  
               0  3  20  
               0.75  3  20  
               1.5  3  20  
               2.25  3  20  
               3  3  20  
            </DataArray>
         </Points> 

         <Cells>
            <DataArray type="Int32" Name="connectivity" NumberOfComponents="1" format="ascii">
               
            </DataArray> 
            <DataArray type="Int32" Name="offsets" NumberOfComponents="1" format="ascii">
               
            </DataArray>
            <DataArray type="UInt8"  Name="types" NumberOfComponents="1" format="ascii">
               
            </DataArray>
         </Cells>
         <PointData Scalars="Rank " Vectors="Displacement Velocity Traction ">
            <DataArray type="UInt32" Name="Rank" NumberOfComponents="1" format="ascii">
               0 0 0 0 0 0 0 0 0 0 0 0 0 0 0 0 0 0 0 0 0 0 0 0 0 
            </DataArray>
            <DataArray type="Float64" Name="Displacement" NumberOfComponents="3" format="ascii">
               0.00182242 0.00181107 -0.00809888  0.000112662 0.00304643 -0.00797148  -0.000821575 0.00366731 -0.007647  -0.000795266 0.00265062 -0.00801049  -0.00195193 0.00311192 -0.00812198  0.00303977 0.000100647 -0.00796466  0.000905277 0.000908566 -0.00718831  -0.000260227 0.00144222 -0.0065583  -0.000894731 0.000942063 -0.00744367  -0.00255955 0.00152285 -0.00786328  0.0036544 -0.000826587 -0.00763322  0.0014345 -0.000265448 -0.0065555  8.95849e-06 6.83987e-06 -0.0054203  -0.00134605 0.000209805 -0.0065978  -0.0035456 0.000838142 -0.00763026  0.00263041 -0.000781002 -0.00799333  0.000931903 -0.00089014 -0.0074403  0.000209422 -0.00133918 -0.00659577  -0.000850158 -0.000841147 -0.0072596  -0.0029647 -0.000173236 -0.00796316  0.00308778 -0.00192542 -0.00808578  0.00150592 -0.00254302 -0.00784794  0.000836544 -0.00353089 -0.00761606  -0.000165938 -0.0029475 -0.00795226  -0.00184941 -0.00185498 -0.00805047  
            </DataArray>
            <DataArray type="Float64" Name="Velocity" NumberOfComponents="3" format="ascii">
               0.00258433 0.00256209 -0.0107182  0.000114496 0.00434607 -0.0102641  -0.000923437 0.00538824 -0.00968594  -0.000886644 0.00384376 -0.010271  -0.00275617 0.00404645 -0.010686  0.00437369 9.58286e-05 -0.0102776  0.00117546 0.00115355 -0.0088326  -0.000248024 0.00187838 -0.00765141  -0.00105704 0.00113719 -0.00907498  -0.00370837 0.00172615 -0.0101165  0.00541059 -0.000945459 -0.00969271  0.00189812 -0.00026615 -0.00764795  7.29571e-05 5.57728e-05 -0.00568188  -0.00169866 0.00024133 -0.00769709  -0.00519563 0.000983895 -0.00965633  0.00385612 -0.000911436 -0.0102689  0.00115154 -0.00107677 -0.00906756  0.000256017 -0.00171645 -0.00769373  -0.00104197 -0.00105827 -0.00891058  -0.00420801 -0.000157151 -0.0102363  0.00405834 -0.00277451 -0.0106904  0.00174177 -0.00372793 -0.0101164  0.000996884 -0.0052147 -0.00966116  -0.000142303 -0.00422441 -0.0102461  -0.00255369 -0.00257209 -0.0106308  
            </DataArray>
            <DataArray type="Float64" Name="Traction" NumberOfComponents="3" format="ascii">
               0 0 0  0 0 0  0 0 0  0 0 0  0 0 0  0 0 0  0 0 0  0 0 0  0 0 0  0 0 0  0 0 0  0 0 0  0 0 0  0 0 0  0 0 0  0 0 0  0 0 0  0 0 0  0 0 0  0 0 0  0 0 0  0 0 0  0 0 0  0 0 0  0 0 0  
            </DataArray>
         </PointData> 
      </Piece>
   </UnstructuredGrid> 
</VTKFile>
