<?xml version="1.0"?>
<VTKFile type="UnstructuredGrid" version="0.1" byte_order="LittleEndian">
   <UnstructuredGrid>
      <Piece NumberOfPoints="25" NumberOfCells="0" > 
         <Points> 
            <DataArray type="Float64" Name="Position" NumberOfComponents="3" format="ascii"> 
               0  0  20  
               0.75  0  20  
               1.5  0  20  
               2.25  0  20  
               3  0  20  
               0  0.75  20  
               0.75  0.75  20  
               1.5  0.75  20  
               2.25  0.75  20  
               3  0.75  20  
               0  1.5  20  
               0.75  1.5  20  
               1.5  1.5  20  
               2.25  1.5  20  
               3  1.5  20  
               0  2.25  20  
               0.75  2.25  20  
               1.5  2.25  20  
               2.25  2.25  20  
               3  2.25  20  
               0  3  20  
               0.75  3  20  
               1.5  3  20  
               2.25  3  20  
               3  3  20  
            </DataArray>
         </Points> 

         <Cells>
            <DataArray type="Int32" Name="connectivity" NumberOfComponents="1" format="ascii">
               
            </DataArray> 
            <DataArray type="Int32" Name="offsets" NumberOfComponents="1" format="ascii">
               
            </DataArray>
            <DataArray type="UInt8"  Name="types" NumberOfComponents="1" format="ascii">
               
            </DataArray>
         </Cells>
         <PointData Scalars="Rank " Vectors="Displacement Velocity Traction ">
            <DataArray type="UInt32" Name="Rank" NumberOfComponents="1" format="ascii">
               0 0 0 0 0 0 0 0 0 0 0 0 0 0 0 0 0 0 0 0 0 0 0 0 0 
            </DataArray>
            <DataArray type="Float64" Name="Displacement" NumberOfComponents="3" format="ascii">
               1.64392e-08 1.64319e-08 -5.5375e-08  4.45942e-10 2.79483e-08 -5.00211e-08  -1.102e-09 3.84157e-08 -4.50048e-08  -1.65581e-09 2.71761e-08 -4.98917e-08  -1.74275e-08 1.86947e-08 -5.52359e-08  2.79566e-08 4.48975e-10 -5.00214e-08  4.57187e-09 4.57412e-09 -3.66156e-08  -3.08592e-10 8.40637e-09 -2.3885e-08  -4.32166e-09 4.22792e-09 -3.66058e-08  -2.71129e-08 2.62897e-09 -4.9909e-08  3.8411e-08 -1.09948e-09 -4.50051e-08  8.4068e-09 -3.05722e-10 -2.38852e-08  3.2095e-10 3.19818e-10 -3.62742e-09  -8.04719e-09 3.19584e-10 -2.39138e-08  -3.81696e-08 1.23313e-09 -4.50531e-08  2.71717e-08 -1.65644e-09 -4.98912e-08  4.22753e-09 -4.323e-09 -3.66064e-08  3.22995e-10 -8.04797e-09 -2.39148e-08  -4.48412e-09 -4.4817e-09 -3.66362e-08  -2.79192e-08 -5.98489e-10 -5.00294e-08  1.86979e-08 -1.74312e-08 -5.52347e-08  2.62815e-09 -2.71142e-08 -4.991e-08  1.24378e-09 -3.8177e-08 -4.50559e-08  -6.03547e-10 -2.79386e-08 -5.00309e-08  -1.64305e-08 -1.64417e-08 -5.53511e-08  
            </DataArray>
            <DataArray type="Float64" Name="Velocity" NumberOfComponents="3" format="ascii">
               6.93275e-08 6.92673e-08 -2.3985e-07  1.20708e-09 1.19465e-07 -2.16151e-07  -7.71397e-09 1.62351e-07 -1.9447e-07  -9.59657e-09 1.14216e-07 -2.15188e-07  -7.59885e-08 8.46259e-08 -2.3904e-07  1.19526e-07 1.22843e-09 -2.16154e-07  2.10913e-08 2.11091e-08 -1.59255e-07  -2.09517e-09 3.86433e-08 -1.06854e-07  -1.93974e-08 1.88163e-08 -1.59254e-07  -1.13794e-07 1.61346e-08 -2.15279e-07  1.62316e-07 -7.69527e-09 -1.94472e-07  3.86465e-08 -2.07064e-09 -1.06855e-07  2.10762e-09 2.09846e-09 -2.47846e-08  -3.6242e-08 2.16745e-09 -1.07055e-07  -1.6072e-07 8.55532e-09 -1.94787e-07  1.14179e-07 -9.59943e-09 -2.15183e-07  1.88113e-08 -1.94094e-08 -1.59258e-07  2.19631e-09 -3.62496e-08 -1.07062e-07  -2.04903e-08 -2.04744e-08 -1.594e-07  -1.19237e-07 -2.22528e-09 -2.16203e-07  8.4649e-08 -7.6018e-08 -2.3903e-07  1.61288e-08 -1.13805e-07 -2.15287e-07  8.63271e-09 -1.60775e-07 -1.94808e-07  -2.26131e-09 -1.19387e-07 -2.16214e-07  -6.92992e-08 -6.93955e-08 -2.39712e-07  
            </DataArray>
            <DataArray type="Float64" Name="Traction" NumberOfComponents="3" format="ascii">
               0 0 0  0 0 0  0 0 0  0 0 0  0 0 0  0 0 0  0 0 0  0 0 0  0 0 0  0 0 0  0 0 0  0 0 0  0 0 0  0 0 0  0 0 0  0 0 0  0 0 0  0 0 0  0 0 0  0 0 0  0 0 0  0 0 0  0 0 0  0 0 0  0 0 0  
            </DataArray>
         </PointData> 
      </Piece>
   </UnstructuredGrid> 
</VTKFile>
