<?xml version="1.0"?>
<VTKFile type="UnstructuredGrid" version="0.1" byte_order="LittleEndian">
   <UnstructuredGrid>
      <Piece NumberOfPoints="25" NumberOfCells="0" > 
         <Points> 
            <DataArray type="Float64" Name="Position" NumberOfComponents="3" format="ascii"> 
               0  0  20  
               0.75  0  20  
               1.5  0  20  
               2.25  0  20  
               3  0  20  
               0  0.75  20  
               0.75  0.75  20  
               1.5  0.75  20  
               2.25  0.75  20  
               3  0.75  20  
               0  1.5  20  
               0.75  1.5  20  
               1.5  1.5  20  
               2.25  1.5  20  
               3  1.5  20  
               0  2.25  20  
               0.75  2.25  20  
               1.5  2.25  20  
               2.25  2.25  20  
               3  2.25  20  
               0  3  20  
               0.75  3  20  
               1.5  3  20  
               2.25  3  20  
               3  3  20  
            </DataArray>
         </Points> 

         <Cells>
            <DataArray type="Int32" Name="connectivity" NumberOfComponents="1" format="ascii">
               
            </DataArray> 
            <DataArray type="Int32" Name="offsets" NumberOfComponents="1" format="ascii">
               
            </DataArray>
            <DataArray type="UInt8"  Name="types" NumberOfComponents="1" format="ascii">
               
            </DataArray>
         </Cells>
         <PointData Scalars="Rank " Vectors="Displacement Velocity Traction ">
            <DataArray type="UInt32" Name="Rank" NumberOfComponents="1" format="ascii">
               0 0 0 0 0 0 0 0 0 0 0 0 0 0 0 0 0 0 0 0 0 0 0 0 0 
            </DataArray>
            <DataArray type="Float64" Name="Displacement" NumberOfComponents="3" format="ascii">
               0.000682469 0.000686592 -0.00316258  3.90913e-05 0.00115657 -0.00316445  -0.000372421 0.00136587 -0.00305772  -0.000358293 0.000993997 -0.00318524  -0.000756483 0.00126098 -0.00319069  0.00113909 4.11065e-05 -0.00315365  0.000356727 0.000369675 -0.00291863  -0.000130547 0.000581665 -0.00272566  -0.000387799 0.000393993 -0.00303443  -0.000972177 0.000663857 -0.00312125  0.00134662 -0.000364638 -0.00304545  0.00056693 -0.000124732 -0.00272534  -1.40524e-05 -6.77748e-06 -0.00235138  -0.000559382 9.00544e-05 -0.00274046  -0.00133069 0.000360125 -0.00305314  0.000974316 -0.000336868 -0.00317461  0.00037996 -0.000375074 -0.00303546  8.20493e-05 -0.000546199 -0.00274056  -0.00036013 -0.00034597 -0.00294711  -0.00113627 -7.9791e-05 -0.00316426  0.00123926 -0.000729749 -0.00316441  0.000645066 -0.000951653 -0.00311088  0.000352144 -0.00131184 -0.00304151  -8.32486e-05 -0.00111697 -0.00315239  -0.000721712 -0.000715289 -0.00315182  
            </DataArray>
            <DataArray type="Float64" Name="Velocity" NumberOfComponents="3" format="ascii">
               0.000680708 0.000668324 -0.0031211  5.99553e-05 0.00111347 -0.00310573  -0.000308887 0.00132405 -0.00300561  -0.000307895 0.000966397 -0.00313101  -0.000711949 0.00117091 -0.00313656  0.0011135 4.75248e-05 -0.00310306  0.000349225 0.000347261 -0.00286035  -9.92667e-05 0.000543426 -0.00266458  -0.000344404 0.00036718 -0.00297039  -0.000924415 0.000597942 -0.00307189  0.0013194 -0.000316737 -0.00299761  0.000541961 -0.000106699 -0.00266241  2.16745e-06 -2.83727e-06 -0.00228833  -0.000510546 8.16952e-05 -0.00268212  -0.00127935 0.000322896 -0.0030024  0.000955992 -0.000302945 -0.00312006  0.000363574 -0.000345224 -0.00296754  8.4997e-05 -0.000509324 -0.0026806  -0.000325449 -0.000322907 -0.00289175  -0.00108535 -7.8068e-05 -0.00310787  0.00115749 -0.000698573 -0.00311427  0.000589575 -0.000917573 -0.00306251  0.000324958 -0.00127304 -0.00299389  -6.91646e-05 -0.00107689 -0.00310217  -0.000684021 -0.000692411 -0.00310633  
            </DataArray>
            <DataArray type="Float64" Name="Traction" NumberOfComponents="3" format="ascii">
               -0.00405989 -0.00411286 -0.0373294  -0.000977758 -0.00790342 -0.0373294  0.00258467 -0.00920364 -0.0373294  0.00196845 -0.00592071 -0.0373294  0.00364051 -0.00694287 -0.0373294  -0.00777715 -0.000971196 -0.0373294  -0.00316445 -0.00321275 -0.0373294  0.00276359 -0.00503976 -0.0373294  0.00310363 -0.00328156 -0.0373294  0.0052774 -0.00356738 -0.0373294  -0.00908134 0.00263845 -0.0373294  -0.00499999 0.00282283 -0.0373294  0.00214265 0.00220415 -0.0373294  0.0048116 0.000587993 -0.0373294  0.00875866 -0.000639379 -0.0373294  -0.00580455 0.00185712 -0.0373294  -0.00326117 0.0030607 -0.0373294  0.000516373 0.00477748 -0.0373294  0.00306125 0.00303809 -0.0373294  0.00749155 0.00119451 -0.0373294  -0.00679443 0.0034128 -0.0373294  -0.00352251 0.00512666 -0.0373294  -0.000725249 0.00863253 -0.0373294  0.00114293 0.00737994 -0.0373294  0.00416069 0.00413457 -0.0373294  
            </DataArray>
         </PointData> 
      </Piece>
   </UnstructuredGrid> 
</VTKFile>
