<?xml version="1.0"?>
<VTKFile type="UnstructuredGrid" version="0.1" byte_order="LittleEndian">
   <UnstructuredGrid>
      <Piece NumberOfPoints="25" NumberOfCells="0" > 
         <Points> 
            <DataArray type="Float64" Name="Position" NumberOfComponents="3" format="ascii"> 
               0  0  20  
               0.75  0  20  
               1.5  0  20  
               2.25  0  20  
               3  0  20  
               0  0.75  20  
               0.75  0.75  20  
               1.5  0.75  20  
               2.25  0.75  20  
               3  0.75  20  
               0  1.5  20  
               0.75  1.5  20  
               1.5  1.5  20  
               2.25  1.5  20  
               3  1.5  20  
               0  2.25  20  
               0.75  2.25  20  
               1.5  2.25  20  
               2.25  2.25  20  
               3  2.25  20  
               0  3  20  
               0.75  3  20  
               1.5  3  20  
               2.25  3  20  
               3  3  20  
            </DataArray>
         </Points> 

         <Cells>
            <DataArray type="Int32" Name="connectivity" NumberOfComponents="1" format="ascii">
               
            </DataArray> 
            <DataArray type="Int32" Name="offsets" NumberOfComponents="1" format="ascii">
               
            </DataArray>
            <DataArray type="UInt8"  Name="types" NumberOfComponents="1" format="ascii">
               
            </DataArray>
         </Cells>
         <PointData Scalars="Rank " Vectors="Displacement Velocity Traction ">
            <DataArray type="UInt32" Name="Rank" NumberOfComponents="1" format="ascii">
               0 0 0 0 0 0 0 0 0 0 0 0 0 0 0 0 0 0 0 0 0 0 0 0 0 
            </DataArray>
            <DataArray type="Float64" Name="Displacement" NumberOfComponents="3" format="ascii">
               -1.27793e-06 -1.1976e-06 1.68211e-07  7.03019e-07 -2.45214e-06 -1.01435e-06  1.08466e-06 -2.75281e-06 -1.76669e-06  9.35093e-07 -1.78548e-06 -1.61232e-06  2.36383e-06 -1.93061e-06 8.77495e-08  -2.73567e-06 7.44199e-07 -9.04189e-07  -5.90431e-07 -4.53375e-07 -2.79231e-06  -2.08116e-07 -8.61435e-07 -3.71149e-06  1.62904e-07 -2.48054e-07 -3.1178e-06  1.92111e-06 -6.41962e-07 -1.46764e-06  -2.97209e-06 1.20666e-06 -1.65221e-06  -9.91157e-07 -1.09859e-07 -3.71863e-06  -3.3943e-07 -2.3635e-07 -4.85616e-06  4.41411e-07 -3.86031e-08 -3.74139e-06  2.53674e-06 -1.02714e-06 -1.75371e-06  -1.96999e-06 9.95652e-07 -1.50514e-06  -3.97188e-07 2.4631e-07 -3.12915e-06  -1.59062e-07 5.95424e-07 -3.76094e-06  2.14088e-07 4.25248e-07 -2.8227e-06  2.18899e-06 -6.56723e-07 -1.10037e-06  -2.19869e-06 2.39064e-06 2.04473e-07  -8.98093e-07 2.01924e-06 -1.46522e-06  -1.22291e-06 2.70237e-06 -1.71846e-06  -9.11838e-07 2.40461e-06 -9.93871e-07  8.36783e-07 1.13135e-06 2.76054e-09  
            </DataArray>
            <DataArray type="Float64" Name="Velocity" NumberOfComponents="3" format="ascii">
               -2.49509e-06 -2.64015e-06 5.353e-06  2.47042e-07 -3.77684e-06 5.18375e-06  2.03601e-06 -3.33357e-06 5.03406e-06  2.02868e-06 -2.8181e-06 5.07854e-06  3.21341e-06 -4.56571e-06 5.22491e-06  -3.77895e-06 1.12827e-07 5.23908e-06  -1.4604e-06 -1.47207e-06 4.51932e-06  4.07604e-07 -1.93003e-06 4.56383e-06  1.43764e-06 -1.61371e-06 4.92269e-06  2.60715e-06 -2.65691e-06 4.63767e-06  -3.39688e-06 1.97491e-06 5.14526e-06  -1.98415e-06 3.72734e-07 4.58803e-06  -5.61483e-08 1.3624e-08 4.1467e-06  1.57337e-06 -2.90751e-07 4.58956e-06  2.81179e-06 -1.70519e-06 4.75812e-06  -2.95644e-06 2.04642e-06 5.177e-06  -1.73245e-06 1.49324e-06 4.91201e-06  -4.4726e-07 1.78114e-06 4.57075e-06  1.0969e-06 1.39513e-06 4.61754e-06  3.10509e-06 -1.4041e-08 4.88949e-06  -4.83289e-06 3.28686e-06 5.42994e-06  -2.96357e-06 2.77913e-06 4.72199e-06  -1.94909e-06 3.14974e-06 4.91685e-06  -2.19126e-07 3.50501e-06 5.10643e-06  2.22961e-06 2.48502e-06 4.88323e-06  
            </DataArray>
            <DataArray type="Float64" Name="Traction" NumberOfComponents="3" format="ascii">
               7.2921e-06 7.57308e-06 4.86882e-05  -5.91631e-06 2.4741e-05 4.86882e-05  -7.98116e-06 2.5923e-05 4.86882e-05  -1.27955e-05 1.91816e-05 4.86882e-05  -2.81485e-05 2.45122e-05 4.86882e-05  2.74809e-05 -4.67886e-06 4.86882e-05  1.01857e-05 8.86409e-06 4.86882e-05  4.50444e-07 1.12302e-05 4.86882e-05  -7.13989e-06 6.49043e-06 4.86882e-05  -2.25912e-05 1.13431e-05 4.86882e-05  2.63861e-05 -7.58847e-06 4.86882e-05  1.08996e-05 -2.2536e-07 4.86882e-05  -2.33528e-06 -1.5363e-06 4.86882e-05  -9.46454e-06 -1.40441e-06 4.86882e-05  -2.51415e-05 7.74084e-06 4.86882e-05  2.03679e-05 -1.29982e-05 4.86882e-05  6.62977e-06 -7.30353e-06 4.86882e-05  -3.04727e-06 -9.41308e-06 4.86882e-05  -9.45618e-06 -8.18205e-06 4.86882e-05  -2.43622e-05 2.82919e-06 4.86882e-05  2.60146e-05 -2.83633e-05 4.86882e-05  1.16968e-05 -2.23424e-05 4.86882e-05  6.17967e-06 -2.50962e-05 4.86882e-05  1.95419e-06 -2.32678e-05 4.86882e-05  -1.04446e-05 -1.04655e-05 4.86882e-05  
            </DataArray>
         </PointData> 
      </Piece>
   </UnstructuredGrid> 
</VTKFile>
