<?xml version="1.0"?>
<VTKFile type="UnstructuredGrid" version="0.1" byte_order="LittleEndian">
   <UnstructuredGrid>
      <Piece NumberOfPoints="25" NumberOfCells="0" > 
         <Points> 
            <DataArray type="Float64" Name="Position" NumberOfComponents="3" format="ascii"> 
               0  0  20  
               0.75  0  20  
               1.5  0  20  
               2.25  0  20  
               3  0  20  
               0  0.75  20  
               0.75  0.75  20  
               1.5  0.75  20  
               2.25  0.75  20  
               3  0.75  20  
               0  1.5  20  
               0.75  1.5  20  
               1.5  1.5  20  
               2.25  1.5  20  
               3  1.5  20  
               0  2.25  20  
               0.75  2.25  20  
               1.5  2.25  20  
               2.25  2.25  20  
               3  2.25  20  
               0  3  20  
               0.75  3  20  
               1.5  3  20  
               2.25  3  20  
               3  3  20  
            </DataArray>
         </Points> 

         <Cells>
            <DataArray type="Int32" Name="connectivity" NumberOfComponents="1" format="ascii">
               
            </DataArray> 
            <DataArray type="Int32" Name="offsets" NumberOfComponents="1" format="ascii">
               
            </DataArray>
            <DataArray type="UInt8"  Name="types" NumberOfComponents="1" format="ascii">
               
            </DataArray>
         </Cells>
         <PointData Scalars="Rank " Vectors="Displacement Velocity Traction ">
            <DataArray type="UInt32" Name="Rank" NumberOfComponents="1" format="ascii">
               0 0 0 0 0 0 0 0 0 0 0 0 0 0 0 0 0 0 0 0 0 0 0 0 0 
            </DataArray>
            <DataArray type="Float64" Name="Displacement" NumberOfComponents="3" format="ascii">
               1.20239e-05 1.09993e-05 -4.83569e-05  -5.74159e-07 2.25714e-05 -4.31638e-05  -5.72112e-06 2.91025e-05 -3.82437e-05  -3.47403e-06 1.93785e-05 -4.12974e-05  -1.45333e-05 2.03592e-05 -4.71047e-05  2.39451e-05 -1.6645e-06 -4.39051e-05  6.81353e-06 5.38607e-06 -3.22927e-05  7.22898e-08 9.68574e-06 -2.41642e-05  -2.71586e-06 4.14534e-06 -3.22776e-05  -1.7778e-05 8.02309e-06 -4.09395e-05  3.09216e-05 -6.91557e-06 -3.90135e-05  1.14332e-05 -9.43426e-07 -2.41536e-05  2.48832e-06 1.332e-06 -1.24374e-05  -7.30752e-06 2.02781e-06 -2.44822e-05  -2.73797e-05 8.17118e-06 -3.85668e-05  2.09063e-05 -5.26964e-06 -4.17343e-05  5.68893e-06 -3.6704e-06 -3.20807e-05  3.29207e-06 -7.95255e-06 -2.43386e-05  -3.52075e-06 -4.29209e-06 -3.23328e-05  -2.16872e-05 2.56835e-06 -4.31389e-05  2.11462e-05 -1.65567e-05 -4.81046e-05  8.94023e-06 -1.89965e-05 -4.12418e-05  8.94632e-06 -2.80025e-05 -3.86892e-05  3.23994e-06 -2.21464e-05 -4.33907e-05  -1.01897e-05 -1.09282e-05 -4.79281e-05  
            </DataArray>
            <DataArray type="Float64" Name="Velocity" NumberOfComponents="3" format="ascii">
               2.55584e-05 2.56073e-05 -9.17868e-05  -7.33351e-07 4.43434e-05 -8.55445e-05  -1.44336e-05 5.15438e-05 -7.8544e-05  -1.16259e-05 3.62578e-05 -8.34917e-05  -2.92578e-05 4.45101e-05 -8.9285e-05  4.52026e-05 -5.18171e-07 -8.64124e-05  1.4275e-05 1.34484e-05 -7.00195e-05  -2.42832e-06 2.07883e-05 -5.95495e-05  -1.03106e-05 1.21085e-05 -7.23871e-05  -3.41308e-05 2.1283e-05 -8.10311e-05  5.3297e-05 -1.44969e-05 -7.98772e-05  2.22982e-05 -2.55684e-06 -5.97108e-05  2.21899e-06 1.5402e-06 -4.23824e-05  -1.68595e-05 3.4677e-06 -6.00053e-05  -4.75499e-05 1.51774e-05 -7.74293e-05  3.84368e-05 -1.32878e-05 -8.47049e-05  1.38605e-05 -1.10201e-05 -7.22549e-05  4.63583e-06 -1.779e-05 -5.99248e-05  -1.00712e-05 -1.14738e-05 -7.05432e-05  -4.03959e-05 1.1587e-06 -8.38663e-05  4.65075e-05 -3.16799e-05 -9.18206e-05  2.32735e-05 -3.56515e-05 -8.18139e-05  1.63094e-05 -4.89845e-05 -7.83634e-05  1.76723e-06 -4.21098e-05 -8.50436e-05  -2.36237e-05 -2.4487e-05 -8.89199e-05  
            </DataArray>
            <DataArray type="Float64" Name="Traction" NumberOfComponents="3" format="ascii">
               -0.000128805 -0.000119504 -0.00102022  -5.46667e-05 -0.00017917 -0.00102022  1.9729e-05 -0.000242524 -0.00102022  3.57534e-05 -0.0001684 -0.00102022  0.000116967 -0.000137815 -0.00102022  -0.000181413 -4.91449e-05 -0.00102022  -6.88202e-05 -7.03449e-05 -0.00102022  5.95563e-05 -0.000123856 -0.00102022  7.87006e-05 -7.60187e-05 -0.00102022  0.000164165 -4.58153e-05 -0.00102022  -0.000245492 1.81532e-05 -0.00102022  -0.000122784 5.29388e-05 -0.00102022  5.60968e-05 4.99363e-05 -0.00102022  0.000126116 1.73361e-05 -0.00102022  0.000246435 7.03457e-06 -0.00102022  -0.000161628 4.05325e-05 -0.00102022  -6.80247e-05 7.90403e-05 -0.00102022  2.45858e-05 0.000121692 -0.00102022  7.84986e-05 7.53606e-05 -0.00102022  0.000194262 4.44449e-05 -0.00102022  -0.000130795 0.000127013 -0.00102022  -3.81496e-05 0.000172375 -0.00102022  1.54994e-05 0.000247406 -0.00102022  4.76107e-05 0.000193959 -0.00102022  0.000120034 0.000120076 -0.00102022  
            </DataArray>
         </PointData> 
      </Piece>
   </UnstructuredGrid> 
</VTKFile>
