<?xml version="1.0"?>
<VTKFile type="UnstructuredGrid" version="0.1" byte_order="LittleEndian">
   <UnstructuredGrid>
      <Piece NumberOfPoints="25" NumberOfCells="0" > 
         <Points> 
            <DataArray type="Float64" Name="Position" NumberOfComponents="3" format="ascii"> 
               0  0  20  
               0.75  0  20  
               1.5  0  20  
               2.25  0  20  
               3  0  20  
               0  0.75  20  
               0.75  0.75  20  
               1.5  0.75  20  
               2.25  0.75  20  
               3  0.75  20  
               0  1.5  20  
               0.75  1.5  20  
               1.5  1.5  20  
               2.25  1.5  20  
               3  1.5  20  
               0  2.25  20  
               0.75  2.25  20  
               1.5  2.25  20  
               2.25  2.25  20  
               3  2.25  20  
               0  3  20  
               0.75  3  20  
               1.5  3  20  
               2.25  3  20  
               3  3  20  
            </DataArray>
         </Points> 

         <Cells>
            <DataArray type="Int32" Name="connectivity" NumberOfComponents="1" format="ascii">
               
            </DataArray> 
            <DataArray type="Int32" Name="offsets" NumberOfComponents="1" format="ascii">
               
            </DataArray>
            <DataArray type="UInt8"  Name="types" NumberOfComponents="1" format="ascii">
               
            </DataArray>
         </Cells>
         <PointData Scalars="Rank " Vectors="Displacement Velocity Traction ">
            <DataArray type="UInt32" Name="Rank" NumberOfComponents="1" format="ascii">
               0 0 0 0 0 0 0 0 0 0 0 0 0 0 0 0 0 0 0 0 0 0 0 0 0 
            </DataArray>
            <DataArray type="Float64" Name="Displacement" NumberOfComponents="3" format="ascii">
               -2.61026e-06 -2.83469e-06 2.30048e-06  5.64754e-07 -3.8776e-06 1.74956e-06  2.22733e-06 -3.10035e-06 1.4547e-06  2.32224e-06 -2.63845e-06 1.44612e-06  3.6383e-06 -4.41473e-06 2.15393e-06  -3.90486e-06 2.88157e-07 1.81216e-06  -1.4055e-06 -1.48868e-06 7.32273e-07  2.93576e-07 -1.85003e-06 7.45559e-07  1.40816e-06 -1.50364e-06 9.96865e-07  2.64711e-06 -2.50165e-06 1.08236e-06  -3.16035e-06 2.066e-06 1.61914e-06  -1.83512e-06 1.83112e-07 7.80425e-07  -5.62673e-08 -5.39379e-08 3.57312e-07  1.3804e-06 -1.2067e-07 7.22632e-07  2.52738e-06 -1.60044e-06 1.09509e-06  -2.83781e-06 2.23869e-06 1.64024e-06  -1.61776e-06 1.42171e-06 9.96347e-07  -2.31253e-07 1.63141e-06 7.17206e-07  1.0524e-06 1.43514e-06 8.15771e-07  2.98223e-06 -8.34201e-08 1.31374e-06  -4.87622e-06 3.61296e-06 2.47239e-06  -2.95297e-06 2.79464e-06 1.17015e-06  -1.89494e-06 2.93234e-06 1.31928e-06  -3.63113e-07 3.51177e-06 1.62528e-06  2.19352e-06 2.54467e-06 1.61714e-06  
            </DataArray>
            <DataArray type="Float64" Name="Velocity" NumberOfComponents="3" format="ascii">
               3.94547e-07 -1.80501e-07 -3.21545e-06  -5.78172e-07 2.04195e-06 -1.38388e-06  5.48213e-08 4.17493e-06 -2.31687e-08  6.83448e-07 2.11548e-06 -5.53602e-07  -1.44052e-06 4.74267e-07 -3.16272e-06  2.68658e-06 -1.21084e-06 -1.59201e-06  1.55142e-07 -4.16976e-07 1.51695e-06  6.94004e-07 3.55108e-07 3.87527e-06  1.07628e-06 -8.1e-07 2.37221e-06  -2.03171e-06 -8.47568e-07 -1.1538e-06  4.7216e-06 -5.94196e-07 -8.94275e-08  8.645e-07 1.85939e-07 3.93818e-06  8.47563e-07 4.46818e-07 6.53633e-06  5.66635e-08 2.34604e-07 3.84316e-06  -4.28207e-06 9.90521e-07 -5.51588e-07  2.349e-06 2.19791e-07 -4.93705e-07  -4.80508e-07 7.83446e-07 2.42621e-06  5.42861e-07 -2.49027e-08 3.90512e-06  5.24468e-07 4.94942e-07 1.65902e-06  -2.62376e-06 1.42725e-06 -1.82536e-06  4.05338e-07 -1.78093e-06 -3.00774e-06  -8.62385e-07 -2.21652e-06 -1.08112e-06  1.11166e-06 -4.19692e-06 -3.27988e-07  1.66634e-06 -2.41609e-06 -1.63699e-06  1.10573e-07 -1.12329e-07 -3.78924e-06  
            </DataArray>
            <DataArray type="Float64" Name="Traction" NumberOfComponents="3" format="ascii">
               7.23898e-06 6.46779e-06 -3.56915e-05  -1.1383e-05 2.96645e-05 -3.56915e-05  -1.71703e-05 1.89743e-05 -3.56915e-05  -1.69372e-05 1.52928e-05 -3.56915e-05  -2.68696e-05 3.81222e-05 -3.56915e-05  3.47725e-05 -1.21794e-05 -3.56915e-05  1.45931e-05 1.01019e-05 -3.56915e-05  2.82579e-07 1.02787e-05 -3.56915e-05  -5.90764e-06 8.88304e-06 -3.56915e-05  -1.28703e-05 2.29138e-05 -3.56915e-05  2.23386e-05 -1.91989e-05 -3.56915e-05  1.27457e-05 -2.68087e-06 -3.56915e-05  7.86245e-07 -2.67395e-07 -3.56915e-05  -5.00405e-06 3.16541e-06 -3.56915e-05  -1.14768e-05 1.69217e-05 -3.56915e-05  2.18173e-05 -2.07942e-05 -3.56915e-05  1.28948e-05 -8.35664e-06 -3.56915e-05  3.33076e-06 -7.9119e-06 -3.56915e-05  -6.44431e-06 -7.76965e-06 -3.56915e-05  -1.92839e-05 8.07953e-06 -3.56915e-05  4.4378e-05 -3.16644e-05 -3.56915e-05  2.66486e-05 -1.52e-05 -3.56915e-05  1.65889e-05 -1.50631e-05 -3.56915e-05  8.25027e-06 -2.20644e-05 -3.56915e-05  -6.20529e-06 -8.58654e-06 -3.56915e-05  
            </DataArray>
         </PointData> 
      </Piece>
   </UnstructuredGrid> 
</VTKFile>
