<?xml version="1.0"?>
<VTKFile type="UnstructuredGrid" version="0.1" byte_order="LittleEndian">
   <UnstructuredGrid>
      <Piece NumberOfPoints="25" NumberOfCells="0" > 
         <Points> 
            <DataArray type="Float64" Name="Position" NumberOfComponents="3" format="ascii"> 
               0  0  15  
               0.75  0  15  
               1.5  0  15  
               2.25  0  15  
               3  0  15  
               0  0.75  15  
               0.75  0.75  15  
               1.5  0.75  15  
               2.25  0.75  15  
               3  0.75  15  
               0  1.5  15  
               0.75  1.5  15  
               1.5  1.5  15  
               2.25  1.5  15  
               3  1.5  15  
               0  2.25  15  
               0.75  2.25  15  
               1.5  2.25  15  
               2.25  2.25  15  
               3  2.25  15  
               0  3  15  
               0.75  3  15  
               1.5  3  15  
               2.25  3  15  
               3  3  15  
            </DataArray>
         </Points> 

         <Cells>
            <DataArray type="Int32" Name="connectivity" NumberOfComponents="1" format="ascii">
               
            </DataArray> 
            <DataArray type="Int32" Name="offsets" NumberOfComponents="1" format="ascii">
               
            </DataArray>
            <DataArray type="UInt8"  Name="types" NumberOfComponents="1" format="ascii">
               
            </DataArray>
         </Cells>
         <PointData Scalars="Rank " Vectors="Displacement Velocity Traction ">
            <DataArray type="UInt32" Name="Rank" NumberOfComponents="1" format="ascii">
               0 0 0 0 0 0 0 0 0 0 0 0 0 0 0 0 0 0 0 0 0 0 0 0 0 
            </DataArray>
            <DataArray type="Float64" Name="Displacement" NumberOfComponents="3" format="ascii">
               3.99296e-07 4.92045e-07 -6.12525e-07  3.80033e-07 -4.90162e-08 -5.55481e-07  3.22038e-07 1.92628e-08 -5.01336e-07  2.57723e-07 1.6032e-08 -5.46855e-07  2.35923e-07 -7.98045e-08 -6.12081e-07  -4.03598e-08 4.40912e-07 -5.55543e-07  -3.01991e-08 -5.4402e-08 -4.25927e-07  -2.07137e-08 5.88235e-09 -3.21851e-07  2.40018e-10 1.808e-08 -4.29057e-07  9.12414e-09 -1.17361e-07 -5.4577e-07  1.19962e-07 3.11789e-07 -5.01352e-07  8.549e-08 -1.7767e-08 -3.21843e-07  -4.35149e-08 -4.00576e-08 -1.66146e-07  -1.65249e-07 5.16627e-08 -3.23282e-07  -2.25211e-07 -1.83851e-07 -5.02716e-07  4.41641e-08 2.20791e-07 -5.46737e-07  3.94503e-08 2.44568e-08 -4.2911e-07  5.66363e-08 -1.2566e-07 -3.23294e-07  7.4288e-08 5.60293e-08 -4.27163e-07  5.56149e-08 -1.93224e-07 -5.55487e-07  -2.06118e-07 1.81326e-07 -6.11914e-07  -2.49527e-07 4.19852e-08 -5.45881e-07  -4.03811e-07 -1.40922e-07 -5.02917e-07  -5.01047e-07 2.57533e-08 -5.5566e-07  -4.81256e-07 -2.01666e-07 -6.12622e-07  
            </DataArray>
            <DataArray type="Float64" Name="Velocity" NumberOfComponents="3" format="ascii">
               1.05071e-06 1.21684e-06 -1.27238e-06  1.01495e-06 -9.03042e-08 -1.17057e-06  8.80282e-07 -6.09754e-08 -1.06121e-06  7.31987e-07 2.96151e-08 -1.14137e-06  6.84535e-07 -1.7233e-07 -1.27757e-06  -7.45533e-08 1.09568e-06 -1.17085e-06  -3.99141e-08 -9.86465e-08 -9.30457e-07  -4.06364e-08 -5.96809e-08 -7.61994e-07  -3.37265e-08 4.65078e-08 -9.45474e-07  -2.49147e-08 -2.53805e-07 -1.1347e-06  2.51276e-07 8.08247e-07 -1.06116e-06  1.93625e-07 -3.29101e-08 -7.61961e-07  -9.76021e-08 -1.25108e-07 -5.16004e-07  -3.80341e-07 1.25063e-07 -7.66628e-07  -5.1743e-07 -3.77535e-07 -1.06418e-06  1.35681e-07 5.94544e-07 -1.1408e-06  1.26281e-07 4.93636e-08 -9.45679e-07  1.33882e-07 -2.78747e-07 -7.66545e-07  1.56364e-07 1.40313e-07 -9.34899e-07  1.15462e-07 -3.54109e-07 -1.1699e-06  -5.88787e-07 5.01333e-07 -1.27688e-06  -6.9036e-07 9.65531e-08 -1.13519e-06  -1.03282e-06 -2.9022e-07 -1.06495e-06  -1.23223e-06 7.98088e-08 -1.17063e-06  -1.17655e-06 -3.50221e-07 -1.27401e-06  
            </DataArray>
            <DataArray type="Float64" Name="Traction" NumberOfComponents="3" format="ascii">
               2.15024e-05 2.15901e-05 -0.000115334  -6.61516e-06 2.06694e-05 -0.000115334  -2.66306e-06 2.58183e-07 -0.000115334  1.17184e-06 1.0272e-05 -0.000115334  -2.01965e-05 2.31562e-05 -0.000115334  1.46767e-05 -7.54066e-06 -0.000115334  -2.02248e-06 -3.49992e-06 -0.000115334  -1.77932e-07 -4.12317e-06 -0.000115334  3.28257e-06 -1.4649e-06 -0.000115334  -2.58645e-05 3.24495e-06 -0.000115334  1.65047e-05 -1.15907e-06 -0.000115334  -2.66575e-06 -8.86781e-07 -0.000115334  -6.04007e-07 -2.8545e-07 -0.000115334  8.08449e-06 8.93139e-07 -0.000115334  -2.97257e-05 2.38089e-06 -0.000115334  1.86106e-05 3.00474e-06 -0.000115334  -1.37491e-06 4.11289e-06 -0.000115334  1.5409e-06 6.00183e-06 -0.000115334  3.31928e-06 2.75768e-06 -0.000115334  -2.12221e-05 -1.54002e-06 -0.000115334  1.50269e-05 -1.16895e-05 -0.000115334  9.26769e-07 -2.03283e-05 -0.000115334  2.05607e-06 -1.49093e-05 -0.000115334  1.88673e-06 -4.76299e-06 -0.000115334  -6.27129e-06 -8.02178e-06 -0.000115334  
            </DataArray>
         </PointData> 
      </Piece>
   </UnstructuredGrid> 
</VTKFile>
