<?xml version="1.0"?>
<VTKFile type="UnstructuredGrid" version="0.1" byte_order="LittleEndian">
   <UnstructuredGrid>
      <Piece NumberOfPoints="25" NumberOfCells="0" > 
         <Points> 
            <DataArray type="Float64" Name="Position" NumberOfComponents="3" format="ascii"> 
               0  0  15  
               0.75  0  15  
               1.5  0  15  
               2.25  0  15  
               3  0  15  
               0  0.75  15  
               0.75  0.75  15  
               1.5  0.75  15  
               2.25  0.75  15  
               3  0.75  15  
               0  1.5  15  
               0.75  1.5  15  
               1.5  1.5  15  
               2.25  1.5  15  
               3  1.5  15  
               0  2.25  15  
               0.75  2.25  15  
               1.5  2.25  15  
               2.25  2.25  15  
               3  2.25  15  
               0  3  15  
               0.75  3  15  
               1.5  3  15  
               2.25  3  15  
               3  3  15  
            </DataArray>
         </Points> 

         <Cells>
            <DataArray type="Int32" Name="connectivity" NumberOfComponents="1" format="ascii">
               
            </DataArray> 
            <DataArray type="Int32" Name="offsets" NumberOfComponents="1" format="ascii">
               
            </DataArray>
            <DataArray type="UInt8"  Name="types" NumberOfComponents="1" format="ascii">
               
            </DataArray>
         </Cells>
         <PointData Scalars="Rank " Vectors="Displacement Velocity Traction ">
            <DataArray type="UInt32" Name="Rank" NumberOfComponents="1" format="ascii">
               0 0 0 0 0 0 0 0 0 0 0 0 0 0 0 0 0 0 0 0 0 0 0 0 0 
            </DataArray>
            <DataArray type="Float64" Name="Displacement" NumberOfComponents="3" format="ascii">
               0 0 0  0 0 0  0 0 0  0 0 0  0 0 0  0 0 0  0 0 0  0 0 0  0 0 0  0 0 0  0 0 0  0 0 0  0 0 0  0 0 0  0 0 0  0 0 0  0 0 0  0 0 0  0 0 0  0 0 0  0 0 0  0 0 0  0 0 0  0 0 0  0 0 0  
            </DataArray>
            <DataArray type="Float64" Name="Velocity" NumberOfComponents="3" format="ascii">
               0 0 0  0 0 0  0 0 0  0 0 0  0 0 0  0 0 0  0 0 0  0 0 0  0 0 0  0 0 0  0 0 0  0 0 0  0 0 0  0 0 0  0 0 0  0 0 0  0 0 0  0 0 0  0 0 0  0 0 0  0 0 0  0 0 0  0 0 0  0 0 0  0 0 0  
            </DataArray>
            <DataArray type="Float64" Name="Traction" NumberOfComponents="3" format="ascii">
               8.04046e-08 8.27574e-08 -4.28005e-06  -1.25711e-08 8.03437e-08 -4.28005e-06  2.99588e-09 5.03335e-08 -4.28005e-06  3.26446e-09 6.09054e-08 -4.28005e-06  -5.6507e-08 6.44834e-08 -4.28005e-06  6.58613e-08 -1.60684e-08 -4.28005e-06  -1.20528e-08 -1.55613e-08 -4.28005e-06  -3.91075e-09 -1.48546e-08 -4.28005e-06  2.02529e-08 -5.11651e-09 -4.28005e-06  -9.75524e-08 7.13102e-09 -4.28005e-06  5.73961e-08 1.27502e-09 -4.28005e-06  -1.20582e-08 -2.12783e-09 -4.28005e-06  -8.96365e-09 -5.45075e-09 -4.28005e-06  3.62927e-08 -2.43134e-10 -4.28005e-06  -1.3429e-07 1.85888e-09 -4.28005e-06  6.99973e-08 1.20649e-08 -4.28005e-06  -8.61673e-09 1.97043e-08 -4.28005e-06  -1.58658e-09 2.7085e-08 -4.28005e-06  1.5799e-08 8.57903e-09 -4.28005e-06  -9.06946e-08 -1.07499e-08 -4.28005e-06  6.76447e-08 -6.22401e-08 -4.28005e-06  -2.9896e-09 -9.13672e-08 -4.28005e-06  3.25074e-09 -9.6168e-08 -4.28005e-06  -5.93356e-09 -6.51293e-08 -4.28005e-06  -4.89246e-08 -4.99491e-08 -4.28005e-06  
            </DataArray>
         </PointData> 
      </Piece>
   </UnstructuredGrid> 
</VTKFile>
