<?xml version="1.0"?>
<VTKFile type="UnstructuredGrid" version="0.1" byte_order="LittleEndian">
   <UnstructuredGrid>
      <Piece NumberOfPoints="25" NumberOfCells="0" > 
         <Points> 
            <DataArray type="Float64" Name="Position" NumberOfComponents="3" format="ascii"> 
               0  0  20  
               0.75  0  20  
               1.5  0  20  
               2.25  0  20  
               3  0  20  
               0  0.75  20  
               0.75  0.75  20  
               1.5  0.75  20  
               2.25  0.75  20  
               3  0.75  20  
               0  1.5  20  
               0.75  1.5  20  
               1.5  1.5  20  
               2.25  1.5  20  
               3  1.5  20  
               0  2.25  20  
               0.75  2.25  20  
               1.5  2.25  20  
               2.25  2.25  20  
               3  2.25  20  
               0  3  20  
               0.75  3  20  
               1.5  3  20  
               2.25  3  20  
               3  3  20  
            </DataArray>
         </Points> 

         <Cells>
            <DataArray type="Int32" Name="connectivity" NumberOfComponents="1" format="ascii">
               
            </DataArray> 
            <DataArray type="Int32" Name="offsets" NumberOfComponents="1" format="ascii">
               
            </DataArray>
            <DataArray type="UInt8"  Name="types" NumberOfComponents="1" format="ascii">
               
            </DataArray>
         </Cells>
         <PointData Scalars="Rank " Vectors="Displacement Velocity Traction ">
            <DataArray type="UInt32" Name="Rank" NumberOfComponents="1" format="ascii">
               0 0 0 0 0 0 0 0 0 0 0 0 0 0 0 0 0 0 0 0 0 0 0 0 0 
            </DataArray>
            <DataArray type="Float64" Name="Displacement" NumberOfComponents="3" format="ascii">
               -2.07806e-06 -2.07493e-06 1.81321e-06  7.34562e-07 -3.57505e-06 6.8136e-07  1.73065e-06 -3.61786e-06 -3.95729e-08  1.61459e-06 -2.59805e-06 1.04933e-07  3.32089e-06 -3.39343e-06 1.6903e-06  -3.82251e-06 7.00536e-07 7.98737e-07  -1.06483e-06 -9.59126e-07 -1.14784e-06  -3.94988e-08 -1.47008e-06 -1.92649e-06  6.85819e-07 -8.17955e-07 -1.28873e-06  2.65741e-06 -1.54725e-06 6.75188e-08  -3.83356e-06 1.80002e-06 1.10762e-07  -1.59715e-06 2.3569e-08 -1.92133e-06  -3.16256e-07 -2.06865e-07 -3.07217e-06  9.55949e-07 -1.22195e-07 -1.94821e-06  3.22259e-06 -1.51845e-06 -1.46788e-07  -2.82262e-06 1.66414e-06 2.48865e-07  -9.95581e-07 7.75486e-07 -1.30194e-06  -2.83531e-07 1.17603e-06 -1.97041e-06  5.97258e-07 9.07268e-07 -1.13813e-06  3.05755e-06 -5.76858e-07 4.73972e-07  -3.75517e-06 3.3649e-06 1.88826e-06  -1.90736e-06 2.80854e-06 1.03782e-07  -1.78874e-06 3.50629e-06 -4.50313e-08  -8.85822e-07 3.41474e-06 6.62832e-07  1.57198e-06 1.93643e-06 1.45796e-06  
            </DataArray>
            <DataArray type="Float64" Name="Velocity" NumberOfComponents="3" format="ascii">
               -2.08994e-06 -2.39905e-06 4.00551e-06  -6.58169e-08 -2.64024e-06 4.49e-06  1.68578e-06 -1.56723e-06 4.8353e-06  1.89405e-06 -1.8085e-06 4.72513e-06  2.26432e-06 -3.82755e-06 3.89265e-06  -2.42036e-06 -3.77868e-07 4.47194e-06  -1.25797e-06 -1.43972e-06 4.89983e-06  5.73157e-07 -1.56263e-06 5.69956e-06  1.58574e-06 -1.67097e-06 5.56696e-06  1.59191e-06 -2.56001e-06 4.11467e-06  -1.47015e-06 1.42966e-06 4.92747e-06  -1.47912e-06 3.93035e-07 5.74664e-06  2.06485e-07 1.61016e-07 6.15783e-06  1.38498e-06 -1.83112e-07 5.7189e-06  1.06005e-06 -1.10383e-06 4.41235e-06  -1.89225e-06 1.79957e-06 4.83926e-06  -1.70532e-06 1.55779e-06 5.56883e-06  -2.50378e-07 1.55256e-06 5.724e-06  1.11618e-06 1.3822e-06 5.03405e-06  1.84243e-06 4.95491e-07 4.07957e-06  -4.09918e-06 2.2768e-06 4.1553e-06  -2.84904e-06 1.71595e-06 4.22459e-06  -1.28364e-06 1.39837e-06 4.6385e-06  3.96856e-07 2.25899e-06 4.33839e-06  1.99533e-06 2.13699e-06 3.37644e-06  
            </DataArray>
            <DataArray type="Float64" Name="Traction" NumberOfComponents="3" format="ascii">
               1.00834e-05 9.73597e-06 3.83131e-05  -7.57343e-06 3.1656e-05 3.83131e-05  -1.2453e-05 2.97643e-05 3.83131e-05  -1.62247e-05 2.23898e-05 3.83131e-05  -3.24433e-05 3.42674e-05 3.83131e-05  3.54585e-05 -7.18731e-06 3.83131e-05  1.36177e-05 1.11322e-05 3.83131e-05  -6.98188e-07 1.39574e-05 3.83131e-05  -8.80696e-06 9.26631e-06 3.83131e-05  -2.3953e-05 1.74239e-05 3.83131e-05  3.12024e-05 -1.29593e-05 3.83131e-05  1.4429e-05 -2.08979e-06 3.83131e-05  -2.41142e-06 -1.94851e-06 3.83131e-05  -1.10669e-05 1.02405e-07 3.83131e-05  -2.68386e-05 1.19372e-05 3.83131e-05  2.52042e-05 -1.77974e-05 3.83131e-05  1.04994e-05 -9.7104e-06 3.83131e-05  -1.25694e-06 -1.17941e-05 3.83131e-05  -1.05932e-05 -9.96824e-06 3.83131e-05  -2.8235e-05 4.39379e-06 3.83131e-05  3.71224e-05 -3.44034e-05 3.83131e-05  1.86894e-05 -2.46366e-05 3.83131e-05  1.04489e-05 -2.79164e-05 3.83131e-05  3.69202e-06 -2.83092e-05 3.83131e-05  -1.19536e-05 -1.27574e-05 3.83131e-05  
            </DataArray>
         </PointData> 
      </Piece>
   </UnstructuredGrid> 
</VTKFile>
