<?xml version="1.0"?>
<VTKFile type="UnstructuredGrid" version="0.1" byte_order="LittleEndian">
   <UnstructuredGrid>
      <Piece NumberOfPoints="25" NumberOfCells="0" > 
         <Points> 
            <DataArray type="Float64" Name="Position" NumberOfComponents="3" format="ascii"> 
               0  0  20  
               0.75  0  20  
               1.5  0  20  
               2.25  0  20  
               3  0  20  
               0  0.75  20  
               0.75  0.75  20  
               1.5  0.75  20  
               2.25  0.75  20  
               3  0.75  20  
               0  1.5  20  
               0.75  1.5  20  
               1.5  1.5  20  
               2.25  1.5  20  
               3  1.5  20  
               0  2.25  20  
               0.75  2.25  20  
               1.5  2.25  20  
               2.25  2.25  20  
               3  2.25  20  
               0  3  20  
               0.75  3  20  
               1.5  3  20  
               2.25  3  20  
               3  3  20  
            </DataArray>
         </Points> 

         <Cells>
            <DataArray type="Int32" Name="connectivity" NumberOfComponents="1" format="ascii">
               
            </DataArray> 
            <DataArray type="Int32" Name="offsets" NumberOfComponents="1" format="ascii">
               
            </DataArray>
            <DataArray type="UInt8"  Name="types" NumberOfComponents="1" format="ascii">
               
            </DataArray>
         </Cells>
         <PointData Scalars="Rank " Vectors="Displacement Velocity Traction ">
            <DataArray type="UInt32" Name="Rank" NumberOfComponents="1" format="ascii">
               0 0 0 0 0 0 0 0 0 0 0 0 0 0 0 0 0 0 0 0 0 0 0 0 0 
            </DataArray>
            <DataArray type="Float64" Name="Displacement" NumberOfComponents="3" format="ascii">
               5.34803e-07 5.34584e-07 -2.17355e-06  -3.3632e-08 9.80037e-07 -2.0558e-06  -3.43873e-07 1.17579e-06 -1.89337e-06  -2.95e-07 8.19347e-07 -2.0091e-06  -6.82551e-07 1.00454e-06 -2.18378e-06  9.80865e-07 -3.22088e-08 -2.05648e-06  2.86449e-07 2.88135e-07 -1.70864e-06  -7.6018e-08 4.71357e-07 -1.47432e-06  -2.57732e-07 2.70369e-07 -1.75466e-06  -7.9836e-07 4.9109e-07 -1.98018e-06  1.17061e-06 -3.4072e-07 -1.89236e-06  4.70742e-07 -7.10235e-08 -1.47429e-06  2.56145e-08 2.47535e-08 -1.10936e-06  -4.1722e-07 7.17142e-08 -1.48398e-06  -1.12532e-06 3.45006e-07 -1.89303e-06  8.12314e-07 -2.95081e-07 -2.00663e-06  2.68604e-07 -2.59643e-07 -1.75513e-06  7.55053e-08 -4.19917e-07 -1.48309e-06  -2.63618e-07 -2.6605e-07 -1.72018e-06  -9.52345e-07 1.22254e-08 -2.0515e-06  1.00197e-06 -6.84865e-07 -2.18187e-06  4.91204e-07 -8.00734e-07 -1.98224e-06  3.51442e-07 -1.13353e-06 -1.89543e-06  1.23783e-08 -9.69263e-07 -2.05418e-06  -5.48706e-07 -5.56888e-07 -2.17508e-06  
            </DataArray>
            <DataArray type="Float64" Name="Velocity" NumberOfComponents="3" format="ascii">
               5.69946e-07 5.76143e-07 -2.44278e-06  -3.51192e-08 1.0176e-06 -2.4411e-06  -5.19206e-07 1.11388e-06 -2.32854e-06  -4.40113e-07 8.09364e-07 -2.40094e-06  -7.1827e-07 1.22191e-06 -2.4478e-06  1.01197e-06 -3.13797e-08 -2.442e-06  3.63775e-07 3.68119e-07 -2.23324e-06  -1.2755e-07 5.60764e-07 -2.13982e-06  -3.57552e-07 3.93925e-07 -2.33613e-06  -7.60652e-07 7.27152e-07 -2.32369e-06  1.10088e-06 -5.10987e-07 -2.32534e-06  5.58593e-07 -1.15951e-07 -2.13983e-06  5.33858e-09 3.86409e-09 -1.94059e-06  -5.04278e-07 1.09566e-07 -2.1557e-06  -1.0323e-06 5.05086e-07 -2.31471e-06  7.93112e-07 -4.40502e-07 -2.39414e-06  3.89309e-07 -3.61148e-07 -2.33692e-06  1.17623e-07 -5.10973e-07 -2.15294e-06  -3.30939e-07 -3.38531e-07 -2.25659e-06  -9.6183e-07 1.14709e-08 -2.42884e-06  1.21267e-06 -7.22759e-07 -2.4437e-06  7.27373e-07 -7.66975e-07 -2.32938e-06  5.17844e-07 -1.05148e-06 -2.32042e-06  1.25615e-08 -9.96042e-07 -2.43565e-06  -5.95694e-07 -6.08429e-07 -2.43656e-06  
            </DataArray>
            <DataArray type="Float64" Name="Traction" NumberOfComponents="3" format="ascii">
               0 0 0  0 0 0  0 0 0  0 0 0  0 0 0  0 0 0  0 0 0  0 0 0  0 0 0  0 0 0  0 0 0  0 0 0  0 0 0  0 0 0  0 0 0  0 0 0  0 0 0  0 0 0  0 0 0  0 0 0  0 0 0  0 0 0  0 0 0  0 0 0  0 0 0  
            </DataArray>
         </PointData> 
      </Piece>
   </UnstructuredGrid> 
</VTKFile>
