<?xml version="1.0"?>
<VTKFile type="UnstructuredGrid" version="0.1" byte_order="LittleEndian">
   <UnstructuredGrid>
      <Piece NumberOfPoints="25" NumberOfCells="0" > 
         <Points> 
            <DataArray type="Float64" Name="Position" NumberOfComponents="3" format="ascii"> 
               0  0  20  
               0.75  0  20  
               1.5  0  20  
               2.25  0  20  
               3  0  20  
               0  0.75  20  
               0.75  0.75  20  
               1.5  0.75  20  
               2.25  0.75  20  
               3  0.75  20  
               0  1.5  20  
               0.75  1.5  20  
               1.5  1.5  20  
               2.25  1.5  20  
               3  1.5  20  
               0  2.25  20  
               0.75  2.25  20  
               1.5  2.25  20  
               2.25  2.25  20  
               3  2.25  20  
               0  3  20  
               0.75  3  20  
               1.5  3  20  
               2.25  3  20  
               3  3  20  
            </DataArray>
         </Points> 

         <Cells>
            <DataArray type="Int32" Name="connectivity" NumberOfComponents="1" format="ascii">
               
            </DataArray> 
            <DataArray type="Int32" Name="offsets" NumberOfComponents="1" format="ascii">
               
            </DataArray>
            <DataArray type="UInt8"  Name="types" NumberOfComponents="1" format="ascii">
               
            </DataArray>
         </Cells>
         <PointData Scalars="Rank " Vectors="Displacement Velocity Traction ">
            <DataArray type="UInt32" Name="Rank" NumberOfComponents="1" format="ascii">
               0 0 0 0 0 0 0 0 0 0 0 0 0 0 0 0 0 0 0 0 0 0 0 0 0 
            </DataArray>
            <DataArray type="Float64" Name="Displacement" NumberOfComponents="3" format="ascii">
               1.8563e-10 1.8563e-10 -5.94498e-10  1.12416e-11 3.05322e-10 -5.3945e-10  -2.1495e-13 4.26908e-10 -4.85837e-10  -1.14749e-11 3.05158e-10 -5.39431e-10  -1.85849e-10 1.86114e-10 -5.94457e-10  3.05325e-10 1.12431e-11 -5.3945e-10  4.59774e-11 4.59781e-11 -3.92267e-10  -7.55337e-14 8.43415e-11 -2.47396e-10  -4.59234e-11 4.58973e-11 -3.92258e-10  -3.05142e-10 1.16873e-11 -5.39435e-10  4.26906e-10 -2.13865e-13 -4.85837e-10  8.43411e-11 -7.49725e-14 -2.47396e-10  7.43322e-14 7.42355e-14 -1.21563e-11  -8.42628e-11 7.80302e-14 -2.47401e-10  -4.26847e-10 2.50842e-13 -4.85846e-10  3.05157e-10 -1.14756e-11 -5.39431e-10  4.58978e-11 -4.59237e-11 -3.92259e-10  7.85862e-14 -8.42627e-11 -2.47402e-10  -4.59599e-11 -4.59582e-11 -3.9227e-10  -3.05316e-10 -1.12743e-11 -5.39452e-10  1.86114e-10 -1.85849e-10 -5.94457e-10  1.16871e-11 -3.05142e-10 -5.39436e-10  2.55715e-13 -4.2685e-10 -4.85848e-10  -1.12751e-11 -3.05323e-10 -5.39453e-10  -1.85629e-10 -1.8563e-10 -5.94493e-10  
            </DataArray>
            <DataArray type="Float64" Name="Velocity" NumberOfComponents="3" format="ascii">
               2.98759e-09 2.98758e-09 -9.59083e-09  1.58561e-10 4.93539e-09 -8.70581e-09  -4.82543e-12 6.90189e-09 -7.83774e-09  -1.63843e-10 4.93161e-09 -8.70535e-09  -2.9924e-09 2.99845e-09 -9.58988e-09  4.93544e-09 1.58582e-10 -8.70581e-09  7.28278e-10 7.28289e-10 -6.32254e-09  -1.65992e-12 1.33806e-09 -3.96655e-09  -7.27067e-10 7.26493e-10 -6.32236e-09  -4.93127e-09 1.68692e-10 -8.70546e-09  6.90186e-09 -4.80928e-12 -7.83774e-09  1.33806e-09 -1.65075e-12 -3.96656e-09  1.68958e-12 1.68793e-12 -1.33116e-10  -1.33626e-09 1.71245e-12 -3.96667e-09  -6.90056e-09 5.60296e-12 -7.83797e-09  4.9316e-09 -1.63855e-10 -8.70534e-09  7.265e-10 -7.27073e-10 -6.32236e-09  1.72164e-12 -1.33626e-09 -3.96668e-09  -7.2787e-10 -7.27844e-10 -6.32262e-09  -4.93528e-09 -1.59318e-10 -8.70585e-09  2.99847e-09 -2.99241e-09 -9.58987e-09  1.6869e-10 -4.93127e-09 -8.70547e-09  5.67944e-12 -6.90061e-09 -7.83799e-09  -1.59335e-10 -4.93539e-09 -8.70586e-09  -2.98755e-09 -2.98756e-09 -9.59068e-09  
            </DataArray>
            <DataArray type="Float64" Name="Traction" NumberOfComponents="3" format="ascii">
               -1.38312e-09 -1.38785e-09 -2.51422e-06  -4.37936e-10 -2.40028e-09 -2.51422e-06  2.54343e-10 -3.56955e-09 -2.51422e-06  3.39838e-10 -2.41076e-09 -2.51422e-06  1.27417e-09 -1.27101e-09 -2.51422e-06  -2.4035e-09 -4.51025e-10 -2.51422e-06  -1.02065e-09 -1.01692e-09 -2.51422e-06  8.21301e-10 -1.77755e-09 -2.51422e-06  1.02659e-09 -1.03943e-09 -2.51422e-06  2.39646e-09 -3.44814e-10 -2.51422e-06  -3.57715e-09 2.58227e-10 -2.51422e-06  -1.7821e-09 8.1842e-10 -2.51422e-06  1.32197e-09 1.32117e-09 -2.51422e-06  1.80026e-09 7.88637e-10 -2.51422e-06  3.61214e-09 3.59163e-10 -2.51422e-06  -2.41683e-09 3.38585e-10 -2.51422e-06  -1.036e-09 1.02594e-09 -2.51422e-06  7.88715e-10 1.79586e-09 -2.51422e-06  1.01298e-09 1.02179e-09 -2.51422e-06  2.41682e-09 4.40081e-10 -2.51422e-06  -1.26094e-09 1.27744e-09 -2.51422e-06  -3.43659e-10 2.40205e-09 -2.51422e-06  3.79036e-10 3.59122e-09 -2.51422e-06  4.72932e-10 2.42347e-09 -2.51422e-06  1.36152e-09 1.35753e-09 -2.51422e-06  
            </DataArray>
         </PointData> 
      </Piece>
   </UnstructuredGrid> 
</VTKFile>
