<?xml version="1.0"?>
<VTKFile type="UnstructuredGrid" version="0.1" byte_order="LittleEndian">
   <UnstructuredGrid>
      <Piece NumberOfPoints="25" NumberOfCells="0" > 
         <Points> 
            <DataArray type="Float64" Name="Position" NumberOfComponents="3" format="ascii"> 
               0  0  20  
               0.75  0  20  
               1.5  0  20  
               2.25  0  20  
               3  0  20  
               0  0.75  20  
               0.75  0.75  20  
               1.5  0.75  20  
               2.25  0.75  20  
               3  0.75  20  
               0  1.5  20  
               0.75  1.5  20  
               1.5  1.5  20  
               2.25  1.5  20  
               3  1.5  20  
               0  2.25  20  
               0.75  2.25  20  
               1.5  2.25  20  
               2.25  2.25  20  
               3  2.25  20  
               0  3  20  
               0.75  3  20  
               1.5  3  20  
               2.25  3  20  
               3  3  20  
            </DataArray>
         </Points> 

         <Cells>
            <DataArray type="Int32" Name="connectivity" NumberOfComponents="1" format="ascii">
               
            </DataArray> 
            <DataArray type="Int32" Name="offsets" NumberOfComponents="1" format="ascii">
               
            </DataArray>
            <DataArray type="UInt8"  Name="types" NumberOfComponents="1" format="ascii">
               
            </DataArray>
         </Cells>
         <PointData Scalars="Rank " Vectors="Displacement Velocity Traction ">
            <DataArray type="UInt32" Name="Rank" NumberOfComponents="1" format="ascii">
               0 0 0 0 0 0 0 0 0 0 0 0 0 0 0 0 0 0 0 0 0 0 0 0 0 
            </DataArray>
            <DataArray type="Float64" Name="Displacement" NumberOfComponents="3" format="ascii">
               6.03649e-10 6.03642e-10 -1.94285e-09  3.03494e-11 9.99425e-10 -1.76326e-09  -2.50432e-12 1.39678e-09 -1.58726e-09  -3.31197e-11 9.97477e-10 -1.76302e-09  -6.06116e-10 6.09248e-10 -1.94237e-09  9.99446e-10 3.03581e-11 -1.76326e-09  1.4736e-10 1.47364e-10 -1.28054e-09  -8.23348e-13 2.70973e-10 -8.03602e-10  -1.46738e-10 1.4645e-10 -1.28046e-09  -9.97307e-10 3.56157e-11 -1.76308e-09  1.39677e-09 -2.49747e-12 -1.58727e-09  2.70972e-10 -8.19266e-13 -8.03603e-10  8.66569e-13 8.65303e-13 -2.79206e-11  -2.70043e-10 8.50741e-13 -8.03666e-10  -1.39611e-09 2.88801e-12 -1.58739e-09  9.97472e-10 -3.31238e-11 -1.76302e-09  1.46452e-10 -1.4674e-10 -1.28046e-09  8.55191e-13 -2.70043e-10 -8.0367e-10  -1.47147e-10 -1.47137e-10 -1.28059e-09  -9.99372e-10 -3.07428e-11 -1.76329e-09  6.09255e-10 -6.06121e-10 -1.94237e-09  3.56141e-11 -9.97308e-10 -1.76308e-09  2.9191e-12 -1.39613e-09 -1.5874e-09  -3.07515e-11 -9.99416e-10 -1.76329e-09  -6.03614e-10 -6.03622e-10 -1.94277e-09  
            </DataArray>
            <DataArray type="Float64" Name="Velocity" NumberOfComponents="3" format="ascii">
               1.01379e-08 1.01377e-08 -3.27496e-08  4.16183e-10 1.68791e-08 -2.97312e-08  -5.89414e-11 2.35872e-08 -2.6752e-08  -4.8161e-10 1.68334e-08 -2.97253e-08  -1.01956e-08 1.02692e-08 -3.27385e-08  1.68795e-08 4.16365e-10 -2.97312e-08  2.43472e-09 2.43482e-09 -2.15631e-08  -1.90277e-11 4.486e-09 -1.34585e-08  -2.42014e-09 2.41348e-09 -2.15612e-08  -1.68294e-08 5.40139e-10 -2.97268e-08  2.35869e-08 -5.87977e-11 -2.6752e-08  4.48599e-09 -1.89387e-11 -1.34585e-08  2.02804e-11 2.02455e-11 -2.52377e-10  -4.46419e-09 1.9668e-11 -1.346e-08  -2.35717e-08 6.77756e-11 -2.6755e-08  1.68332e-08 -4.81691e-10 -2.97253e-08  2.41352e-09 -2.42018e-09 -2.15612e-08  1.97697e-11 -4.46418e-09 -1.34601e-08  -2.42971e-09 -2.42951e-09 -2.15642e-08  -1.68779e-08 -4.25431e-10 -2.97317e-08  1.02694e-08 -1.01958e-08 -3.27384e-08  5.40103e-10 -1.68295e-08 -2.97268e-08  6.84196e-11 -2.35721e-08 -2.67552e-08  -4.25638e-10 -1.68788e-08 -2.97318e-08  -1.0137e-08 -1.01372e-08 -3.27477e-08  
            </DataArray>
            <DataArray type="Float64" Name="Traction" NumberOfComponents="3" format="ascii">
               0 0 0  0 0 0  0 0 0  0 0 0  0 0 0  0 0 0  0 0 0  0 0 0  0 0 0  0 0 0  0 0 0  0 0 0  0 0 0  0 0 0  0 0 0  0 0 0  0 0 0  0 0 0  0 0 0  0 0 0  0 0 0  0 0 0  0 0 0  0 0 0  0 0 0  
            </DataArray>
         </PointData> 
      </Piece>
   </UnstructuredGrid> 
</VTKFile>
