<?xml version="1.0"?>
<VTKFile type="UnstructuredGrid" version="0.1" byte_order="LittleEndian">
   <UnstructuredGrid>
      <Piece NumberOfPoints="25" NumberOfCells="0" > 
         <Points> 
            <DataArray type="Float64" Name="Position" NumberOfComponents="3" format="ascii"> 
               0  0  15  
               0.75  0  15  
               1.5  0  15  
               2.25  0  15  
               3  0  15  
               0  0.75  15  
               0.75  0.75  15  
               1.5  0.75  15  
               2.25  0.75  15  
               3  0.75  15  
               0  1.5  15  
               0.75  1.5  15  
               1.5  1.5  15  
               2.25  1.5  15  
               3  1.5  15  
               0  2.25  15  
               0.75  2.25  15  
               1.5  2.25  15  
               2.25  2.25  15  
               3  2.25  15  
               0  3  15  
               0.75  3  15  
               1.5  3  15  
               2.25  3  15  
               3  3  15  
            </DataArray>
         </Points> 

         <Cells>
            <DataArray type="Int32" Name="connectivity" NumberOfComponents="1" format="ascii">
               
            </DataArray> 
            <DataArray type="Int32" Name="offsets" NumberOfComponents="1" format="ascii">
               
            </DataArray>
            <DataArray type="UInt8"  Name="types" NumberOfComponents="1" format="ascii">
               
            </DataArray>
         </Cells>
         <PointData Scalars="Rank " Vectors="Displacement Velocity Traction ">
            <DataArray type="UInt32" Name="Rank" NumberOfComponents="1" format="ascii">
               0 0 0 0 0 0 0 0 0 0 0 0 0 0 0 0 0 0 0 0 0 0 0 0 0 
            </DataArray>
            <DataArray type="Float64" Name="Displacement" NumberOfComponents="3" format="ascii">
               0 0 0  0 0 0  0 0 0  0 0 0  0 0 0  0 0 0  0 0 0  0 0 0  0 0 0  0 0 0  0 0 0  0 0 0  0 0 0  0 0 0  0 0 0  0 0 0  0 0 0  0 0 0  0 0 0  0 0 0  0 0 0  0 0 0  0 0 0  0 0 0  0 0 0  
            </DataArray>
            <DataArray type="Float64" Name="Velocity" NumberOfComponents="3" format="ascii">
               0 0 0  0 0 0  0 0 0  0 0 0  0 0 0  0 0 0  0 0 0  0 0 0  0 0 0  0 0 0  0 0 0  0 0 0  0 0 0  0 0 0  0 0 0  0 0 0  0 0 0  0 0 0  0 0 0  0 0 0  0 0 0  0 0 0  0 0 0  0 0 0  0 0 0  
            </DataArray>
            <DataArray type="Float64" Name="Traction" NumberOfComponents="3" format="ascii">
               0.000268577 0.000277844 0.000196018  -0.000119208 0.00015689 0.000196018  -2.30937e-05 6.62502e-05 0.000196018  5.51894e-05 0.000197644 0.000196018  -0.000330287 0.000345599 0.000196018  0.000349622 -9.62148e-05 0.000196018  4.45381e-05 -6.24664e-06 0.000196018  1.9367e-05 7.54015e-05 0.000196018  3.41621e-05 2.73417e-05 0.000196018  -0.000380907 1.60731e-05 0.000196018  0.000371691 -9.7047e-06 0.000196018  0.000103561 1.07285e-05 0.000196018  2.67295e-05 1.2327e-05 0.000196018  2.044e-05 1.0503e-05 0.000196018  -0.000476073 -6.59253e-06 0.000196018  0.00038746 6.09825e-05 0.000196018  3.96456e-05 2.17113e-05 0.000196018  2.09009e-05 -3.64802e-05 0.000196018  4.26621e-05 -3.4671e-06 0.000196018  -0.000100443 -5.43993e-05 0.000196018  0.000413622 -0.000362115 0.000196018  9.22052e-06 -0.0003068 0.000196018  3.97879e-05 -0.000296724 0.000196018  3.74685e-05 -2.42856e-05 0.000196018  0.000262446 0.000199941 0.000196018  
            </DataArray>
         </PointData> 
      </Piece>
   </UnstructuredGrid> 
</VTKFile>
