<?xml version="1.0"?>
<VTKFile type="UnstructuredGrid" version="0.1" byte_order="LittleEndian">
   <UnstructuredGrid>
      <Piece NumberOfPoints="25" NumberOfCells="0" > 
         <Points> 
            <DataArray type="Float64" Name="Position" NumberOfComponents="3" format="ascii"> 
               0  0  20  
               0.75  0  20  
               1.5  0  20  
               2.25  0  20  
               3  0  20  
               0  0.75  20  
               0.75  0.75  20  
               1.5  0.75  20  
               2.25  0.75  20  
               3  0.75  20  
               0  1.5  20  
               0.75  1.5  20  
               1.5  1.5  20  
               2.25  1.5  20  
               3  1.5  20  
               0  2.25  20  
               0.75  2.25  20  
               1.5  2.25  20  
               2.25  2.25  20  
               3  2.25  20  
               0  3  20  
               0.75  3  20  
               1.5  3  20  
               2.25  3  20  
               3  3  20  
            </DataArray>
         </Points> 

         <Cells>
            <DataArray type="Int32" Name="connectivity" NumberOfComponents="1" format="ascii">
               
            </DataArray> 
            <DataArray type="Int32" Name="offsets" NumberOfComponents="1" format="ascii">
               
            </DataArray>
            <DataArray type="UInt8"  Name="types" NumberOfComponents="1" format="ascii">
               
            </DataArray>
         </Cells>
         <PointData Scalars="Rank " Vectors="Displacement Velocity Traction ">
            <DataArray type="UInt32" Name="Rank" NumberOfComponents="1" format="ascii">
               0 0 0 0 0 0 0 0 0 0 0 0 0 0 0 0 0 0 0 0 0 0 0 0 0 
            </DataArray>
            <DataArray type="Float64" Name="Displacement" NumberOfComponents="3" format="ascii">
               0.000467425 0.000475079 -0.00216382  1.99102e-05 0.000804024 -0.00216582  -0.000270329 0.000948494 -0.00208894  -0.000255871 0.000688428 -0.0021775  -0.000528957 0.000883574 -0.0021843  0.000788024 2.56939e-05 -0.00215685  0.00024536 0.000257846 -0.00199292  -9.64237e-05 0.000406896 -0.001858  -0.000274314 0.000274692 -0.00207221  -0.000678559 0.000467551 -0.00213251  0.000932329 -0.000260684 -0.00208022  0.000393867 -8.8703e-05 -0.00185836  -1.3108e-05 -4.83597e-06 -0.00159811  -0.000393135 6.35555e-05 -0.00186728  -0.000925717 0.000255065 -0.00208472  0.000673614 -0.000237798 -0.00217111  0.000262965 -0.000262351 -0.00207397  5.51546e-05 -0.000381412 -0.00186779  -0.000253468 -0.000241272 -0.0020113  -0.000790679 -5.32323e-05 -0.00216408  0.000867808 -0.000508583 -0.00216712  0.000452998 -0.000661805 -0.00212585  0.000247116 -0.000910402 -0.00207672  -5.92206e-05 -0.000775663 -0.00215505  -0.000502903 -0.000494396 -0.00215626  
            </DataArray>
            <DataArray type="Float64" Name="Velocity" NumberOfComponents="3" format="ascii">
               0.000443727 0.000438138 -0.0020819  3.8767e-05 0.000731171 -0.00209095  -0.000219986 0.000863662 -0.00203205  -0.000221871 0.000634007 -0.00211182  -0.000476767 0.000793968 -0.00210436  0.000724056 3.20831e-05 -0.00208462  0.000230258 0.000234309 -0.00194751  -7.6817e-05 0.000366355 -0.00183253  -0.000244438 0.000252382 -0.00202558  -0.000613602 0.000418183 -0.00207238  0.000853073 -0.000221737 -0.00202227  0.000359444 -7.91495e-05 -0.00183121  -6.33474e-06 -6.51054e-06 -0.00160113  -0.00035378 5.56138e-05 -0.00184357  -0.000842832 0.000221546 -0.00203276  0.000620035 -0.000210244 -0.00210136  0.000244512 -0.00024 -0.00202468  5.44109e-05 -0.000347873 -0.00184292  -0.000228354 -0.000221185 -0.00196828  -0.000721821 -5.85437e-05 -0.00209603  0.000777532 -0.000458335 -0.0020809  0.000405408 -0.000601697 -0.0020631  0.000219422 -0.000831608 -0.00202314  -5.46302e-05 -0.000708925 -0.00208754  -0.000459125 -0.000461355 -0.00207895  
            </DataArray>
            <DataArray type="Float64" Name="Traction" NumberOfComponents="3" format="ascii">
               0 0 0  0 0 0  0 0 0  0 0 0  0 0 0  0 0 0  0 0 0  0 0 0  0 0 0  0 0 0  0 0 0  0 0 0  0 0 0  0 0 0  0 0 0  0 0 0  0 0 0  0 0 0  0 0 0  0 0 0  0 0 0  0 0 0  0 0 0  0 0 0  0 0 0  
            </DataArray>
         </PointData> 
      </Piece>
   </UnstructuredGrid> 
</VTKFile>
