<?xml version="1.0"?>
<VTKFile type="UnstructuredGrid" version="0.1" byte_order="LittleEndian">
   <UnstructuredGrid>
      <Piece NumberOfPoints="25" NumberOfCells="0" > 
         <Points> 
            <DataArray type="Float64" Name="Position" NumberOfComponents="3" format="ascii"> 
               0  0  15  
               0.75  0  15  
               1.5  0  15  
               2.25  0  15  
               3  0  15  
               0  0.75  15  
               0.75  0.75  15  
               1.5  0.75  15  
               2.25  0.75  15  
               3  0.75  15  
               0  1.5  15  
               0.75  1.5  15  
               1.5  1.5  15  
               2.25  1.5  15  
               3  1.5  15  
               0  2.25  15  
               0.75  2.25  15  
               1.5  2.25  15  
               2.25  2.25  15  
               3  2.25  15  
               0  3  15  
               0.75  3  15  
               1.5  3  15  
               2.25  3  15  
               3  3  15  
            </DataArray>
         </Points> 

         <Cells>
            <DataArray type="Int32" Name="connectivity" NumberOfComponents="1" format="ascii">
               
            </DataArray> 
            <DataArray type="Int32" Name="offsets" NumberOfComponents="1" format="ascii">
               
            </DataArray>
            <DataArray type="UInt8"  Name="types" NumberOfComponents="1" format="ascii">
               
            </DataArray>
         </Cells>
         <PointData Scalars="Rank " Vectors="Displacement Velocity Traction ">
            <DataArray type="UInt32" Name="Rank" NumberOfComponents="1" format="ascii">
               0 0 0 0 0 0 0 0 0 0 0 0 0 0 0 0 0 0 0 0 0 0 0 0 0 
            </DataArray>
            <DataArray type="Float64" Name="Displacement" NumberOfComponents="3" format="ascii">
               0.000775374 0.000717446 -0.000422188  0.000735977 0.000112548 -0.000408853  0.000585595 -4.77601e-05 -0.000384329  0.000410179 -8.41198e-05 -0.000405195  0.000345302 -0.000446389 -0.000417764  0.000100672 0.000679332 -0.000409302  0.000102841 0.000112885 -0.000356829  1.78193e-05 -1.1751e-06 -0.000318565  -6.09312e-05 -8.35487e-05 -0.000369666  -4.92145e-05 -0.00050979 -0.000395005  -8.00001e-05 0.000537994 -0.000386006  -3.15044e-05 1.59664e-05 -0.000319129  -0.000103362 -8.67355e-05 -0.000253429  -0.000165327 -0.000195916 -0.000320204  -0.000111431 -0.00067331 -0.000380776  -0.000135612 0.000370515 -0.000407408  -0.000126672 -7.96279e-05 -0.000370086  -0.000214575 -0.00016528 -0.000320316  -0.000299488 -0.000307106 -0.000359346  -0.000296549 -0.000804233 -0.000404282  -0.00047574 0.000307535 -0.000421969  -0.000531196 -8.05686e-05 -0.000396317  -0.00067269 -0.000129806 -0.00038196  -0.000779278 -0.000321275 -0.000405434  -0.000801429 -0.000836611 -0.000415092  
            </DataArray>
            <DataArray type="Float64" Name="Velocity" NumberOfComponents="3" format="ascii">
               0.000373419 0.000447108 -0.000480025  0.000343233 3.3897e-05 -0.000479739  0.000238577 -0.000106668 -0.000459992  0.00011789 -0.000103049 -0.000480942  7.15161e-05 -0.000343635 -0.000482999  -5.26364e-05 0.000416164 -0.000477079  -5.53019e-05 3.06919e-05 -0.000438384  -0.00013569 -6.4152e-05 -0.000406398  -0.000213851 -9.76809e-05 -0.000455997  -0.000210791 -0.000393365 -0.000469441  -0.00018026 0.000313014 -0.000458233  -0.000139944 -4.96684e-05 -0.000406909  -0.000187186 -0.00010862 -0.000346427  -0.000233673 -0.000174005 -0.000407889  -0.000193972 -0.000515163 -0.000456915  -0.000178304 0.000193352 -0.000480589  -0.000175028 -0.000124718 -0.00045714  -0.000255768 -0.000150541 -0.000408372  -0.000338076 -0.000252937 -0.000441773  -0.000341585 -0.000616148 -0.000476781  -0.000437136 0.000146313 -0.000481136  -0.000486123 -0.000119019 -0.000468777  -0.000608465 -0.000107022 -0.000455863  -0.000710461 -0.000255524 -0.000474922  -0.000739595 -0.00064591 -0.000476053  
            </DataArray>
            <DataArray type="Float64" Name="Traction" NumberOfComponents="3" format="ascii">
               0.0130785 0.0136837 -0.0346219  0.00147653 0.0158294 -0.0346219  -0.00331253 0.0164905 -0.0346219  -0.00809085 0.0169722 -0.0346219  -0.0197532 0.0181059 -0.0346219  0.0164958 0.00224965 -0.0346219  0.00433876 0.00535261 -0.0346219  -0.000823618 0.00591727 -0.0346219  -0.0063188 0.00537812 -0.0346219  -0.017244 0.00700431 -0.0346219  0.0167827 -0.00301461 -0.0346219  0.00426471 -0.000189119 -0.0346219  -0.00122826 -0.000513224 -0.0346219  -0.00737021 -0.000915431 -0.0346219  -0.0181591 0.00150593 -0.0346219  0.0167706 -0.00794834 -0.0346219  0.00401026 -0.00620933 -0.0346219  -0.00152386 -0.00747329 -0.0346219  -0.0074584 -0.0077074 -0.0346219  -0.0148094 -0.00605203 -0.0346219  0.0179132 -0.0204842 -0.0346219  0.00574826 -0.0169553 -0.0346219  0.00122701 -0.0173735 -0.0346219  -0.00560569 -0.0151939 -0.0346219  -0.00957886 -0.0100179 -0.0346219  
            </DataArray>
         </PointData> 
      </Piece>
   </UnstructuredGrid> 
</VTKFile>
