<?xml version="1.0"?>
<VTKFile type="UnstructuredGrid" version="0.1" byte_order="LittleEndian">
   <UnstructuredGrid>
      <Piece NumberOfPoints="25" NumberOfCells="0" > 
         <Points> 
            <DataArray type="Float64" Name="Position" NumberOfComponents="3" format="ascii"> 
               0  0  20  
               0.75  0  20  
               1.5  0  20  
               2.25  0  20  
               3  0  20  
               0  0.75  20  
               0.75  0.75  20  
               1.5  0.75  20  
               2.25  0.75  20  
               3  0.75  20  
               0  1.5  20  
               0.75  1.5  20  
               1.5  1.5  20  
               2.25  1.5  20  
               3  1.5  20  
               0  2.25  20  
               0.75  2.25  20  
               1.5  2.25  20  
               2.25  2.25  20  
               3  2.25  20  
               0  3  20  
               0.75  3  20  
               1.5  3  20  
               2.25  3  20  
               3  3  20  
            </DataArray>
         </Points> 

         <Cells>
            <DataArray type="Int32" Name="connectivity" NumberOfComponents="1" format="ascii">
               
            </DataArray> 
            <DataArray type="Int32" Name="offsets" NumberOfComponents="1" format="ascii">
               
            </DataArray>
            <DataArray type="UInt8"  Name="types" NumberOfComponents="1" format="ascii">
               
            </DataArray>
         </Cells>
         <PointData Scalars="Rank " Vectors="Displacement Velocity Traction ">
            <DataArray type="UInt32" Name="Rank" NumberOfComponents="1" format="ascii">
               0 0 0 0 0 0 0 0 0 0 0 0 0 0 0 0 0 0 0 0 0 0 0 0 0 
            </DataArray>
            <DataArray type="Float64" Name="Displacement" NumberOfComponents="3" format="ascii">
               0.00291308 0.00289529 -0.0124948  0.000149138 0.00489579 -0.0121397  -0.00118137 0.00599097 -0.0115513  -0.00114138 0.00430164 -0.0121769  -0.00312993 0.00477349 -0.0125078  0.00489884 0.000131907 -0.0121378  0.0013784 0.00137419 -0.0106994  -0.000353728 0.00221091 -0.0095169  -0.00131904 0.0013935 -0.0110382  -0.00416291 0.00218508 -0.0119758  0.00598639 -0.00119332 -0.0115407  0.00221026 -0.000364568 -0.00951311  4.16862e-05 3.40381e-05 -0.00747522  -0.002042 0.000301685 -0.0095725  -0.00579545 0.00122016 -0.0115241  0.0042868 -0.00113632 -0.0121601  0.00138868 -0.00132134 -0.0110325  0.000306082 -0.00204152 -0.00956946  -0.00127335 -0.00127028 -0.0107982  -0.00476267 -0.000228654 -0.0121202  0.00475493 -0.00311123 -0.0124754  0.00217441 -0.00415403 -0.0119614  0.00122282 -0.00578809 -0.0115125  -0.000217163 -0.00475201 -0.0121133  -0.00293075 -0.00294173 -0.0124143  
            </DataArray>
            <DataArray type="Float64" Name="Velocity" NumberOfComponents="3" format="ascii">
               0.00530285 0.00528114 -0.0209006  0.000138979 0.00904207 -0.0196671  -0.00162457 0.011484 -0.0183155  -0.00157034 0.00813892 -0.0196496  -0.00577705 0.00788974 -0.0208722  0.00908103 0.000122011 -0.0196875  0.002209 0.00217956 -0.0162836  -0.00041177 0.00363849 -0.0133917  -0.00198116 0.00208697 -0.0166196  -0.00794349 0.0029575 -0.0194303  0.0115187 -0.00165002 -0.0183304  0.00366722 -0.000432117 -0.0133884  0.000163215 0.000142529 -0.00871601  -0.00330221 0.000407092 -0.013458  -0.0111575 0.0017204 -0.0182738  0.00816346 -0.00160873 -0.0196543  0.00210923 -0.00200868 -0.0166113  0.000425151 -0.0033282 -0.0134544  -0.00199382 -0.00201822 -0.0163974  -0.0088223 -0.000233878 -0.0196178  0.0079162 -0.00581236 -0.0208941  0.0029848 -0.00797646 -0.0194371  0.00173652 -0.0111889 -0.0182865  -0.000220105 -0.0088507 -0.0196348  -0.00527175 -0.00529025 -0.0207662  
            </DataArray>
            <DataArray type="Float64" Name="Traction" NumberOfComponents="3" format="ascii">
               -0.0178343 -0.0179313 -0.301293  -0.0034335 -0.0352043 -0.301293  0.0100289 -0.0433592 -0.301293  0.00821507 -0.0284581 -0.301293  0.0179852 -0.0281177 -0.301293  -0.0350527 -0.003564 -0.301293  -0.013851 -0.0140054 -0.301293  0.0112929 -0.0221337 -0.301293  0.0135282 -0.0137472 -0.301293  0.0266163 -0.0131565 -0.301293  -0.043182 0.0098864 -0.301293  -0.0219922 0.0111945 -0.301293  0.0109553 0.010877 -0.301293  0.0215399 0.00456307 -0.301293  0.0420077 -0.00182445 -0.301293  -0.0282135 0.00792987 -0.301293  -0.013604 0.0133438 -0.301293  0.00462967 0.0213764 -0.301293  0.013723 0.0135871 -0.301293  0.0339523 0.00446123 -0.301293  -0.0278233 0.0175795 -0.301293  -0.0129877 0.0263338 -0.301293  -0.00176377 0.0417734 -0.301293  0.00448683 0.0337524 -0.301293  0.0181936 0.0181542 -0.301293  
            </DataArray>
         </PointData> 
      </Piece>
   </UnstructuredGrid> 
</VTKFile>
