<?xml version="1.0"?>
<VTKFile type="UnstructuredGrid" version="0.1" byte_order="LittleEndian">
   <UnstructuredGrid>
      <Piece NumberOfPoints="25" NumberOfCells="0" > 
         <Points> 
            <DataArray type="Float64" Name="Position" NumberOfComponents="3" format="ascii"> 
               0  0  20  
               0.75  0  20  
               1.5  0  20  
               2.25  0  20  
               3  0  20  
               0  0.75  20  
               0.75  0.75  20  
               1.5  0.75  20  
               2.25  0.75  20  
               3  0.75  20  
               0  1.5  20  
               0.75  1.5  20  
               1.5  1.5  20  
               2.25  1.5  20  
               3  1.5  20  
               0  2.25  20  
               0.75  2.25  20  
               1.5  2.25  20  
               2.25  2.25  20  
               3  2.25  20  
               0  3  20  
               0.75  3  20  
               1.5  3  20  
               2.25  3  20  
               3  3  20  
            </DataArray>
         </Points> 

         <Cells>
            <DataArray type="Int32" Name="connectivity" NumberOfComponents="1" format="ascii">
               
            </DataArray> 
            <DataArray type="Int32" Name="offsets" NumberOfComponents="1" format="ascii">
               
            </DataArray>
            <DataArray type="UInt8"  Name="types" NumberOfComponents="1" format="ascii">
               
            </DataArray>
         </Cells>
         <PointData Scalars="Rank " Vectors="Displacement Velocity Traction ">
            <DataArray type="UInt32" Name="Rank" NumberOfComponents="1" format="ascii">
               0 0 0 0 0 0 0 0 0 0 0 0 0 0 0 0 0 0 0 0 0 0 0 0 0 
            </DataArray>
            <DataArray type="Float64" Name="Displacement" NumberOfComponents="3" format="ascii">
               0.000611992 0.000617382 -0.00283801  3.28269e-05 0.00104126 -0.00284099  -0.000339985 0.00122898 -0.00274441  -0.000325894 0.000893989 -0.00285904  -0.000682561 0.00113899 -0.00286428  0.00102391 3.61317e-05 -0.00283055  0.000320422 0.000333486 -0.00262005  -0.000120009 0.000525075 -0.00244688  -0.000351684 0.000355627 -0.00272425  -0.000876423 0.000601148 -0.00280121  0.00121036 -0.00033143 -0.00273307  0.000510596 -0.000113452 -0.00244679  -1.41373e-05 -6.38628e-06 -0.00211099  -0.000506037 8.15137e-05 -0.00245986  -0.00119829 0.000326346 -0.00274011  0.000875526 -0.000305135 -0.00284962  0.000342067 -0.000338958 -0.00272556  7.3215e-05 -0.000493072 -0.00246011  -0.000326056 -0.000312258 -0.00264524  -0.00102371 -7.15137e-05 -0.00284049  0.00111881 -0.000657403 -0.0028405  0.000583364 -0.000856748 -0.00279189  0.000318204 -0.00118023 -0.00272945  -7.58824e-05 -0.00100542 -0.0028293  -0.000650669 -0.000643413 -0.00282865  
            </DataArray>
            <DataArray type="Float64" Name="Velocity" NumberOfComponents="3" format="ascii">
               0.000595988 0.000585533 -0.00275867  5.34294e-05 0.0009756 -0.00275427  -0.000278943 0.00115596 -0.00267033  -0.000279304 0.000845565 -0.00277863  -0.000627524 0.0010394 -0.00277693  0.000973205 4.25698e-05 -0.00275029  0.000308354 0.00030835 -0.00254903  -9.18541e-05 0.000481847 -0.00238589  -0.000310127 0.000327942 -0.00264898  -0.000810687 0.000538265 -0.00272604  0.0011492 -0.00028495 -0.00266154  0.000478531 -9.77799e-05 -0.00238395  -7.9815e-07 -4.32863e-06 -0.00206654  -0.00045613 7.30127e-05 -0.00240134  -0.00111958 0.000289031 -0.00266868  0.000833738 -0.00027199 -0.00276759  0.000322851 -0.000309206 -0.00264673  7.49357e-05 -0.000453299 -0.00240008  -0.000292057 -0.000287919 -0.00257703  -0.000954194 -7.19765e-05 -0.00275775  0.00102463 -0.000612143 -0.00275371  0.000528222 -0.000801977 -0.00271647  0.000289791 -0.00111145 -0.00265957  -6.445e-05 -0.000944033 -0.00275097  -0.000603254 -0.000609865 -0.00274821  
            </DataArray>
            <DataArray type="Float64" Name="Traction" NumberOfComponents="3" format="ascii">
               0 0 0  0 0 0  0 0 0  0 0 0  0 0 0  0 0 0  0 0 0  0 0 0  0 0 0  0 0 0  0 0 0  0 0 0  0 0 0  0 0 0  0 0 0  0 0 0  0 0 0  0 0 0  0 0 0  0 0 0  0 0 0  0 0 0  0 0 0  0 0 0  0 0 0  
            </DataArray>
         </PointData> 
      </Piece>
   </UnstructuredGrid> 
</VTKFile>
