<?xml version="1.0"?>
<VTKFile type="UnstructuredGrid" version="0.1" byte_order="LittleEndian">
   <UnstructuredGrid>
      <Piece NumberOfPoints="25" NumberOfCells="0" > 
         <Points> 
            <DataArray type="Float64" Name="Position" NumberOfComponents="3" format="ascii"> 
               0  0  20  
               0.75  0  20  
               1.5  0  20  
               2.25  0  20  
               3  0  20  
               0  0.75  20  
               0.75  0.75  20  
               1.5  0.75  20  
               2.25  0.75  20  
               3  0.75  20  
               0  1.5  20  
               0.75  1.5  20  
               1.5  1.5  20  
               2.25  1.5  20  
               3  1.5  20  
               0  2.25  20  
               0.75  2.25  20  
               1.5  2.25  20  
               2.25  2.25  20  
               3  2.25  20  
               0  3  20  
               0.75  3  20  
               1.5  3  20  
               2.25  3  20  
               3  3  20  
            </DataArray>
         </Points> 

         <Cells>
            <DataArray type="Int32" Name="connectivity" NumberOfComponents="1" format="ascii">
               
            </DataArray> 
            <DataArray type="Int32" Name="offsets" NumberOfComponents="1" format="ascii">
               
            </DataArray>
            <DataArray type="UInt8"  Name="types" NumberOfComponents="1" format="ascii">
               
            </DataArray>
         </Cells>
         <PointData Scalars="Rank " Vectors="Displacement Velocity Traction ">
            <DataArray type="UInt32" Name="Rank" NumberOfComponents="1" format="ascii">
               0 0 0 0 0 0 0 0 0 0 0 0 0 0 0 0 0 0 0 0 0 0 0 0 0 
            </DataArray>
            <DataArray type="Float64" Name="Displacement" NumberOfComponents="3" format="ascii">
               2.64772e-07 2.63849e-07 -1.03658e-06  -1.19789e-08 4.84627e-07 -9.51051e-07  -1.21026e-07 6.09698e-07 -8.61609e-07  -1.08199e-07 4.20405e-07 -9.31403e-07  -3.33153e-07 4.47938e-07 -1.03954e-06  4.85681e-07 -1.16251e-08 -9.51244e-07  1.23254e-07 1.23662e-07 -7.46485e-07  -2.64916e-08 2.12211e-07 -5.92586e-07  -1.06475e-07 1.0694e-07 -7.56699e-07  -4.14976e-07 1.83196e-07 -9.26714e-07  6.08586e-07 -1.20386e-07 -8.61488e-07  2.12149e-07 -2.53721e-08 -5.92583e-07  1.62088e-08 1.59503e-08 -3.62796e-07  -1.87628e-07 2.65135e-08 -5.95831e-07  -5.91652e-07 1.2515e-07 -8.63613e-07  4.18822e-07 -1.08186e-07 -9.30981e-07  1.06594e-07 -1.06983e-07 -7.56839e-07  2.74759e-08 -1.88154e-07 -5.95749e-07  -1.149e-07 -1.15132e-07 -7.49599e-07  -4.77297e-07 2.16421e-09 -9.50566e-07  4.47804e-07 -3.33842e-07 -1.03909e-06  1.83183e-07 -4.15427e-07 -9.27079e-07  1.26914e-07 -5.93506e-07 -8.64175e-07  1.96898e-09 -4.8175e-07 -9.51092e-07  -2.6867e-07 -2.71307e-07 -1.03758e-06  
            </DataArray>
            <DataArray type="Float64" Name="Velocity" NumberOfComponents="3" format="ascii">
               4.22419e-07 4.21053e-07 -1.75005e-06  -3.58454e-08 7.89881e-07 -1.65047e-06  -2.99174e-07 9.39798e-07 -1.51175e-06  -2.51206e-07 6.47757e-07 -1.60298e-06  -5.56539e-07 8.28947e-07 -1.76472e-06  7.91872e-07 -3.4898e-08 -1.65111e-06  2.38023e-07 2.39187e-07 -1.3646e-06  -6.2101e-08 3.91491e-07 -1.18288e-06  -2.08315e-07 2.18215e-07 -1.40076e-06  -6.33044e-07 4.17438e-07 -1.58278e-06  9.36156e-07 -2.96998e-07 -1.51115e-06  3.91156e-07 -5.83633e-08 -1.18283e-06  2.47716e-08 2.40403e-08 -9.07312e-07  -3.42561e-07 6.02686e-08 -1.19106e-06  -8.98575e-07 3.01114e-07 -1.51332e-06  6.42491e-07 -2.51213e-07 -1.60132e-06  2.1699e-07 -2.09897e-07 -1.40118e-06  6.32118e-08 -3.44488e-07 -1.19051e-06  -2.1809e-07 -2.19566e-07 -1.37373e-06  -7.67599e-07 1.69705e-08 -1.6475e-06  8.27596e-07 -5.58406e-07 -1.76322e-06  4.17536e-07 -6.3465e-07 -1.58414e-06  3.06227e-07 -9.04636e-07 -1.51507e-06  1.70052e-08 -7.81077e-07 -1.64938e-06  -4.34716e-07 -4.41904e-07 -1.7538e-06  
            </DataArray>
            <DataArray type="Float64" Name="Traction" NumberOfComponents="3" format="ascii">
               -2.1439e-06 -2.16643e-06 -1.81927e-05  -6.1148e-07 -3.79932e-06 -1.81927e-05  6.95451e-07 -4.81783e-06 -1.81927e-05  8.31374e-07 -3.2208e-06 -1.81927e-05  2.29851e-06 -3.02487e-06 -1.81927e-05  -3.81149e-06 -6.25753e-07 -1.81927e-05  -1.5348e-06 -1.52188e-06 -1.81927e-05  9.7e-07 -2.3901e-06 -1.81927e-05  1.40501e-06 -1.40371e-06 -1.81927e-05  3.16234e-06 -1.28441e-06 -1.81927e-05  -4.88187e-06 7.11659e-07 -1.81927e-05  -2.44374e-06 9.62894e-07 -1.81927e-05  1.02065e-06 1.02025e-06 -1.81927e-05  2.37038e-06 4.79131e-07 -1.81927e-05  4.85519e-06 -9.54444e-08 -1.81927e-05  -3.23338e-06 8.60387e-07 -1.81927e-05  -1.41892e-06 1.39009e-06 -1.81927e-05  4.7383e-07 2.34652e-06 -1.81927e-05  1.46089e-06 1.4672e-06 -1.81927e-05  3.74133e-06 5.39476e-07 -1.81927e-05  -2.94429e-06 2.34134e-06 -1.81927e-05  -1.20448e-06 3.13974e-06 -1.81927e-05  2.64944e-08 4.81213e-06 -1.81927e-05  7.22306e-07 3.78033e-06 -1.81927e-05  2.20163e-06 2.05812e-06 -1.81927e-05  
            </DataArray>
         </PointData> 
      </Piece>
   </UnstructuredGrid> 
</VTKFile>
