<?xml version="1.0"?>
<VTKFile type="UnstructuredGrid" version="0.1" byte_order="LittleEndian">
   <UnstructuredGrid>
      <Piece NumberOfPoints="25" NumberOfCells="0" > 
         <Points> 
            <DataArray type="Float64" Name="Position" NumberOfComponents="3" format="ascii"> 
               0  0  20  
               0.75  0  20  
               1.5  0  20  
               2.25  0  20  
               3  0  20  
               0  0.75  20  
               0.75  0.75  20  
               1.5  0.75  20  
               2.25  0.75  20  
               3  0.75  20  
               0  1.5  20  
               0.75  1.5  20  
               1.5  1.5  20  
               2.25  1.5  20  
               3  1.5  20  
               0  2.25  20  
               0.75  2.25  20  
               1.5  2.25  20  
               2.25  2.25  20  
               3  2.25  20  
               0  3  20  
               0.75  3  20  
               1.5  3  20  
               2.25  3  20  
               3  3  20  
            </DataArray>
         </Points> 

         <Cells>
            <DataArray type="Int32" Name="connectivity" NumberOfComponents="1" format="ascii">
               
            </DataArray> 
            <DataArray type="Int32" Name="offsets" NumberOfComponents="1" format="ascii">
               
            </DataArray>
            <DataArray type="UInt8"  Name="types" NumberOfComponents="1" format="ascii">
               
            </DataArray>
         </Cells>
         <PointData Scalars="Rank " Vectors="Displacement Velocity Traction ">
            <DataArray type="UInt32" Name="Rank" NumberOfComponents="1" format="ascii">
               0 0 0 0 0 0 0 0 0 0 0 0 0 0 0 0 0 0 0 0 0 0 0 0 0 
            </DataArray>
            <DataArray type="Float64" Name="Displacement" NumberOfComponents="3" format="ascii">
               -5.00212e-07 -3.93032e-07 -1.528e-06  5.90683e-07 -1.21508e-06 -2.58694e-06  4.39756e-07 -1.58103e-06 -3.23794e-06  3.15676e-07 -8.5022e-07 -3.11319e-06  1.31086e-06 -5.04627e-07 -1.57033e-06  -1.47501e-06 6.55981e-07 -2.50013e-06  -1.4028e-07 -1.45954e-08 -4.04965e-06  -3.11632e-07 -2.50723e-07 -4.90088e-06  -2.47962e-07 2.21083e-07 -4.46396e-06  1.04099e-06 1.54908e-07 -2.85912e-06  -1.76786e-06 5.62733e-07 -3.15743e-06  -3.5419e-07 -2.14922e-07 -4.91262e-06  -2.97602e-07 -2.23329e-07 -5.83188e-06  -4.46996e-08 5.6436e-08 -4.93805e-06  1.51931e-06 -4.59142e-07 -3.15873e-06  -9.90788e-07 3.63476e-07 -3.03404e-06  1.12396e-07 -1.87229e-07 -4.47153e-06  -1.26296e-08 4.55905e-08 -4.94997e-06  -1.10809e-07 1.08473e-08 -4.10512e-06  1.1371e-06 -5.99251e-07 -2.59765e-06  -6.93989e-07 1.31464e-06 -1.5075e-06  -9.73988e-09 1.08702e-06 -2.87804e-06  -5.77792e-07 1.58731e-06 -3.16303e-06  -7.83808e-07 1.23622e-06 -2.55077e-06  1.52475e-07 3.60214e-07 -1.57107e-06  
            </DataArray>
            <DataArray type="Float64" Name="Velocity" NumberOfComponents="3" format="ascii">
               -2.28395e-06 -2.30983e-06 5.03314e-06  4.4182e-07 -3.81654e-06 4.45028e-06  1.92987e-06 -3.84084e-06 3.98249e-06  1.78591e-06 -2.91328e-06 4.11834e-06  3.25129e-06 -4.19657e-06 4.92724e-06  -3.95333e-06 4.19371e-07 4.536e-06  -1.3052e-06 -1.23092e-06 3.19257e-06  2.33387e-07 -1.82372e-06 2.74496e-06  1.09663e-06 -1.27352e-06 3.34034e-06  2.79047e-06 -2.24772e-06 3.88421e-06  -3.97096e-06 1.97606e-06 4.08015e-06  -1.92441e-06 2.70666e-07 2.74981e-06  -1.93614e-07 -9.25289e-08 1.8678e-06  1.4163e-06 -2.88704e-07 2.76291e-06  3.41309e-06 -1.77549e-06 3.84627e-06  -3.04334e-06 1.84049e-06 4.19452e-06  -1.39964e-06 1.17639e-06 3.32853e-06  -4.42857e-07 1.59852e-06 2.73604e-06  9.0716e-07 1.15803e-06 3.24944e-06  3.34302e-06 -3.25538e-07 4.27626e-06  -4.41629e-06 3.31467e-06 5.05693e-06  -2.50426e-06 2.93532e-06 3.93148e-06  -2.00329e-06 3.67465e-06 3.93343e-06  -5.5101e-07 3.66141e-06 4.42817e-06  1.97968e-06 2.25531e-06 4.7423e-06  
            </DataArray>
            <DataArray type="Float64" Name="Traction" NumberOfComponents="3" format="ascii">
               3.43273e-06 4.26575e-06 4.55457e-05  -4.73112e-06 1.57747e-05 4.55457e-05  -3.86551e-06 1.82169e-05 4.55457e-05  -8.68877e-06 1.34102e-05 4.55457e-05  -2.10713e-05 1.38168e-05 4.55457e-05  1.75892e-05 -2.93674e-06 4.55457e-05  6.29407e-06 5.76411e-06 4.55457e-05  1.84219e-06 6.9788e-06 4.55457e-05  -4.42093e-06 3.20813e-06 4.55457e-05  -1.76613e-05 5.48537e-06 4.55457e-05  1.81145e-05 -2.8827e-06 4.55457e-05  6.30791e-06 1.5873e-06 4.55457e-05  -1.46996e-06 -7.12599e-07 4.55457e-05  -5.93192e-06 -2.25146e-06 4.55457e-05  -1.86494e-05 3.98347e-06 4.55457e-05  1.37282e-05 -8.02237e-06 4.55457e-05  2.83616e-06 -4.19862e-06 4.55457e-05  -3.77262e-06 -5.6081e-06 4.55457e-05  -6.84029e-06 -5.40928e-06 4.55457e-05  -1.7043e-05 1.83495e-06 4.55457e-05  1.47051e-05 -2.01971e-05 4.55457e-05  5.4864e-06 -1.69298e-05 4.55457e-05  2.7118e-06 -1.80842e-05 4.55457e-05  1.07864e-06 -1.54067e-05 4.55457e-05  -7.04833e-06 -6.67684e-06 4.55457e-05  
            </DataArray>
         </PointData> 
      </Piece>
   </UnstructuredGrid> 
</VTKFile>
