<?xml version="1.0"?>
<VTKFile type="UnstructuredGrid" version="0.1" byte_order="LittleEndian">
   <UnstructuredGrid>
      <Piece NumberOfPoints="25" NumberOfCells="0" > 
         <Points> 
            <DataArray type="Float64" Name="Position" NumberOfComponents="3" format="ascii"> 
               0  0  15  
               0.75  0  15  
               1.5  0  15  
               2.25  0  15  
               3  0  15  
               0  0.75  15  
               0.75  0.75  15  
               1.5  0.75  15  
               2.25  0.75  15  
               3  0.75  15  
               0  1.5  15  
               0.75  1.5  15  
               1.5  1.5  15  
               2.25  1.5  15  
               3  1.5  15  
               0  2.25  15  
               0.75  2.25  15  
               1.5  2.25  15  
               2.25  2.25  15  
               3  2.25  15  
               0  3  15  
               0.75  3  15  
               1.5  3  15  
               2.25  3  15  
               3  3  15  
            </DataArray>
         </Points> 

         <Cells>
            <DataArray type="Int32" Name="connectivity" NumberOfComponents="1" format="ascii">
               
            </DataArray> 
            <DataArray type="Int32" Name="offsets" NumberOfComponents="1" format="ascii">
               
            </DataArray>
            <DataArray type="UInt8"  Name="types" NumberOfComponents="1" format="ascii">
               
            </DataArray>
         </Cells>
         <PointData Scalars="Rank " Vectors="Displacement Velocity Traction ">
            <DataArray type="UInt32" Name="Rank" NumberOfComponents="1" format="ascii">
               0 0 0 0 0 0 0 0 0 0 0 0 0 0 0 0 0 0 0 0 0 0 0 0 0 
            </DataArray>
            <DataArray type="Float64" Name="Displacement" NumberOfComponents="3" format="ascii">
               0.00122911 0.001283 -0.00128028  0.00114768 0.000142836 -0.00127514  0.000861506 -0.00021212 -0.00122304  0.000532812 -0.000232891 -0.00127825  0.000408108 -0.000898717 -0.00128864  8.86948e-06 0.00120209 -0.00126985  4.67775e-06 0.000135971 -0.00116199  -0.000189766 -0.000111628 -0.00107471  -0.000373823 -0.00022816 -0.00120737  -0.000358987 -0.0010306 -0.00124986  -0.000347307 0.000925715 -0.00121919  -0.000246751 -7.06064e-05 -0.00107552  -0.000378931 -0.000254089 -0.000912049  -0.000502201 -0.000441634 -0.00107948  -0.000397923 -0.00135581 -0.00121781  -0.000391787 0.000604884 -0.0012766  -0.00038077 -0.000267711 -0.00120914  -0.000576068 -0.000387163 -0.00108009  -0.000772311 -0.00065705 -0.00117137  -0.000777712 -0.0016206 -0.00127013  -0.0010666 0.000480698 -0.00128262  -0.00118979 -0.000261933 -0.00124744  -0.0014947 -0.000295048 -0.00121439  -0.00173879 -0.000675787 -0.00126563  -0.00180329 -0.00169401 -0.00127146  
            </DataArray>
            <DataArray type="Float64" Name="Velocity" NumberOfComponents="3" format="ascii">
               0.000470461 0.000604283 -0.00125679  0.000421332 2.40099e-05 -0.00127141  0.000274238 -0.000197669 -0.00123653  0.00011215 -0.000175847 -0.00128456  4.73092e-05 -0.000497156 -0.0012778  -0.000114605 0.000554229 -0.00126386  -0.00012558 1.17195e-05 -0.00118985  -0.000249223 -0.000142456 -0.00112324  -0.000366645 -0.000175362 -0.00123785  -0.00036465 -0.000576295 -0.00125989  -0.000316205 0.0004066 -0.00122792  -0.000261638 -0.000113153 -0.00112294  -0.000326926 -0.000205334 -0.000986666  -0.000394922 -0.00028774 -0.00112861  -0.000342372 -0.000755806 -0.00123675  -0.000300358 0.000243212 -0.00127716  -0.000301186 -0.00022759 -0.00123872  -0.000419661 -0.000266533 -0.00112881  -0.000544372 -0.000403724 -0.00120087  -0.000557915 -0.000904773 -0.00127403  -0.000656247 0.000176662 -0.00125972  -0.000734745 -0.000222023 -0.0012531  -0.000916332 -0.000207004 -0.00122889  -0.00107028 -0.000411683 -0.00126559  -0.00112127 -0.000952891 -0.00125675  
            </DataArray>
            <DataArray type="Float64" Name="Traction" NumberOfComponents="3" format="ascii">
               0.0236259 0.0246202 -0.0616444  0.00476233 0.0287798 -0.0616444  -0.00640189 0.029927 -0.0616444  -0.0177053 0.0300551 -0.0616444  -0.0359034 0.0322837 -0.0616444  0.0294024 0.00604727 -0.0616444  0.00977264 0.0110172 -0.0616444  -0.00130294 0.0115293 -0.0616444  -0.0138499 0.0111292 -0.0616444  -0.0319886 0.0147264 -0.0616444  0.0303826 -0.00555284 -0.0616444  0.00971816 -0.000312913 -0.0616444  -0.00170435 -0.000606564 -0.0616444  -0.0148767 -0.00118322 -0.0616444  -0.0328786 0.00322588 -0.0616444  0.0301282 -0.0172025 -0.0616444  0.0097631 -0.0132827 -0.0616444  -0.00208981 -0.0143461 -0.0616444  -0.0148649 -0.0145291 -0.0616444  -0.028714 -0.010992 -0.0616444  0.0324066 -0.0364291 -0.0616444  0.0135995 -0.0313004 -0.0616444  0.00274333 -0.0315624 -0.0616444  -0.0109481 -0.0285031 -0.0616444  -0.0210188 -0.0210756 -0.0616444  
            </DataArray>
         </PointData> 
      </Piece>
   </UnstructuredGrid> 
</VTKFile>
