<?xml version="1.0"?>
<VTKFile type="UnstructuredGrid" version="0.1" byte_order="LittleEndian">
   <UnstructuredGrid>
      <Piece NumberOfPoints="25" NumberOfCells="0" > 
         <Points> 
            <DataArray type="Float64" Name="Position" NumberOfComponents="3" format="ascii"> 
               0  0  15  
               0.75  0  15  
               1.5  0  15  
               2.25  0  15  
               3  0  15  
               0  0.75  15  
               0.75  0.75  15  
               1.5  0.75  15  
               2.25  0.75  15  
               3  0.75  15  
               0  1.5  15  
               0.75  1.5  15  
               1.5  1.5  15  
               2.25  1.5  15  
               3  1.5  15  
               0  2.25  15  
               0.75  2.25  15  
               1.5  2.25  15  
               2.25  2.25  15  
               3  2.25  15  
               0  3  15  
               0.75  3  15  
               1.5  3  15  
               2.25  3  15  
               3  3  15  
            </DataArray>
         </Points> 

         <Cells>
            <DataArray type="Int32" Name="connectivity" NumberOfComponents="1" format="ascii">
               
            </DataArray> 
            <DataArray type="Int32" Name="offsets" NumberOfComponents="1" format="ascii">
               
            </DataArray>
            <DataArray type="UInt8"  Name="types" NumberOfComponents="1" format="ascii">
               
            </DataArray>
         </Cells>
         <PointData Scalars="Rank " Vectors="Displacement Velocity Traction ">
            <DataArray type="UInt32" Name="Rank" NumberOfComponents="1" format="ascii">
               0 0 0 0 0 0 0 0 0 0 0 0 0 0 0 0 0 0 0 0 0 0 0 0 0 
            </DataArray>
            <DataArray type="Float64" Name="Displacement" NumberOfComponents="3" format="ascii">
               0.00186922 0.00224079 -0.0133507  0.00158007 0.00031612 -0.012939  0.00107097 -0.000432674 -0.0122846  0.000601305 -0.000584609 -0.0129809  0.000328797 -0.0015721 -0.0133559  -0.00011465 0.00194944 -0.0129376  -0.000323222 0.000101318 -0.011374  -0.000823134 -0.000427406 -0.010068  -0.00124115 -0.000729009 -0.0117252  -0.00132887 -0.00199392 -0.0127688  -0.000836279 0.00144125 -0.0122742  -0.000827421 -0.00041549 -0.0100641  -0.001139 -0.000749156 -0.00783269  -0.00146877 -0.00115944 -0.0101259  -0.00143873 -0.00268902 -0.0122553  -0.00102091 0.000970343 -0.012964  -0.00115891 -0.000845892 -0.0117193  -0.00157994 -0.00108181 -0.0101228  -0.00206434 -0.00164822 -0.0114757  -0.00226464 -0.00328566 -0.0129153  -0.0020572 0.000694804 -0.013324  -0.00247155 -0.00093678 -0.0127546  -0.00315553 -0.00105132 -0.0122438  -0.0037449 -0.00185007 -0.0129086  -0.00404113 -0.00358396 -0.0132586  
            </DataArray>
            <DataArray type="Float64" Name="Velocity" NumberOfComponents="3" format="ascii">
               -0.000381953 -0.000248398 -0.0231997  -0.000701804 0.000439759 -0.0217512  -0.000598217 0.000501864 -0.0201729  -0.000235803 8.54329e-05 -0.0217441  -0.000345927 0.000737874 -0.023142  0.000324459 -0.000570406 -0.0217729  -0.000154046 -3.98099e-05 -0.0179553  -0.000336137 3.19385e-06 -0.0146353  -0.000375771 -0.000305169 -0.0183075  -0.000673798 0.000354604 -0.0215107  0.000396345 -0.000471768 -0.0201893  -0.000102155 -0.000221848 -0.0146321  -0.000225739 -0.000116963 -0.00930057  -0.000416985 -0.000311298 -0.0147063  -0.000875888 0.000262633 -0.0201338  -2.24581e-05 -0.000112597 -0.0217501  -0.000414229 -0.000260436 -0.0182992  -0.00042686 -0.000306114 -0.0147029  -0.000575005 -0.000454113 -0.0180758  -0.00102557 0.000126479 -0.0217004  0.000619617 -0.000223476 -0.0231674  0.000233957 -0.000554863 -0.0215193  0.000131473 -0.000759275 -0.0201485  -1.41043e-05 -0.000901291 -0.0217189  -0.00037615 -0.000234552 -0.0230525  
            </DataArray>
            <DataArray type="Float64" Name="Traction" NumberOfComponents="3" format="ascii">
               0.0377594 0.0389148 0.0370686  0.0114109 0.0374632 0.0370686  -0.00925904 0.0327825 0.0370686  -0.0371032 0.0406397 0.0370686  -0.059825 0.04793 0.0370686  0.0377419 0.0128529 0.0370686  0.0160032 0.0171763 0.0370686  0.00587442 0.0128491 0.0370686  -0.024116 0.0182794 0.0370686  -0.0465742 0.0280033 0.0370686  0.0334689 -0.00819352 0.0370686  0.011359 0.00677173 0.0370686  0.00836865 0.00946075 0.0370686  -0.0186727 0.00478832 0.0370686  -0.0373167 0.00978468 0.0370686  0.0413359 -0.0365538 0.0370686  0.0176214 -0.0234802 0.0370686  0.00402608 -0.0177788 0.0370686  -0.022666 -0.0218025 0.0370686  -0.0387372 -0.0186868 0.0370686  0.0490102 -0.0600712 0.0370686  0.0279628 -0.0458117 0.0370686  0.00942116 -0.0359109 0.0370686  -0.0193921 -0.0378209 0.0370686  -0.0368318 -0.0359801 0.0370686  
            </DataArray>
         </PointData> 
      </Piece>
   </UnstructuredGrid> 
</VTKFile>
