<?xml version="1.0"?>
<VTKFile type="UnstructuredGrid" version="0.1" byte_order="LittleEndian">
   <UnstructuredGrid>
      <Piece NumberOfPoints="25" NumberOfCells="0" > 
         <Points> 
            <DataArray type="Float64" Name="Position" NumberOfComponents="3" format="ascii"> 
               0  0  20  
               0.75  0  20  
               1.5  0  20  
               2.25  0  20  
               3  0  20  
               0  0.75  20  
               0.75  0.75  20  
               1.5  0.75  20  
               2.25  0.75  20  
               3  0.75  20  
               0  1.5  20  
               0.75  1.5  20  
               1.5  1.5  20  
               2.25  1.5  20  
               3  1.5  20  
               0  2.25  20  
               0.75  2.25  20  
               1.5  2.25  20  
               2.25  2.25  20  
               3  2.25  20  
               0  3  20  
               0.75  3  20  
               1.5  3  20  
               2.25  3  20  
               3  3  20  
            </DataArray>
         </Points> 

         <Cells>
            <DataArray type="Int32" Name="connectivity" NumberOfComponents="1" format="ascii">
               
            </DataArray> 
            <DataArray type="Int32" Name="offsets" NumberOfComponents="1" format="ascii">
               
            </DataArray>
            <DataArray type="UInt8"  Name="types" NumberOfComponents="1" format="ascii">
               
            </DataArray>
         </Cells>
         <PointData Scalars="Rank " Vectors="Displacement Velocity Traction ">
            <DataArray type="UInt32" Name="Rank" NumberOfComponents="1" format="ascii">
               0 0 0 0 0 0 0 0 0 0 0 0 0 0 0 0 0 0 0 0 0 0 0 0 0 
            </DataArray>
            <DataArray type="Float64" Name="Displacement" NumberOfComponents="3" format="ascii">
               1.25441e-05 1.15212e-05 -5.023e-05  -5.8875e-07 2.34739e-05 -4.49114e-05  -6.01539e-06 3.01513e-05 -3.98494e-05  -3.71136e-06 2.01165e-05 -4.30038e-05  -1.51281e-05 2.12664e-05 -4.89271e-05  2.48644e-05 -1.67402e-06 -4.567e-05  7.10395e-06 5.66038e-06 -3.3726e-05  2.17638e-08 1.01096e-05 -2.53854e-05  -2.92727e-06 4.39281e-06 -3.37598e-05  -1.84732e-05 8.4578e-06 -4.25956e-05  3.20052e-05 -7.21037e-06 -4.0646e-05  1.18869e-05 -9.95897e-07 -2.53781e-05  2.53239e-06 1.36298e-06 -1.33102e-05  -7.65196e-06 2.0984e-06 -2.57126e-05  -2.83475e-05 8.47953e-06 -4.01495e-05  2.1688e-05 -5.54004e-06 -4.34654e-05  5.97134e-06 -3.89569e-06 -3.35603e-05  3.38568e-06 -8.31545e-06 -2.55675e-05  -3.72691e-06 -4.52626e-06 -3.37768e-05  -2.25095e-05 2.59053e-06 -4.48521e-05  2.20936e-05 -1.72001e-05 -4.99784e-05  9.41498e-06 -1.9722e-05 -4.29137e-05  9.27717e-06 -2.8999e-05 -4.02909e-05  3.27387e-06 -2.30033e-05 -4.51278e-05  -1.06718e-05 -1.14272e-05 -4.97429e-05  
            </DataArray>
            <DataArray type="Float64" Name="Velocity" NumberOfComponents="3" format="ascii">
               2.61613e-05 2.6255e-05 -9.42845e-05  -7.2826e-07 4.53902e-05 -8.79959e-05  -1.48071e-05 5.27397e-05 -8.08677e-05  -1.19475e-05 3.71105e-05 -8.59381e-05  -2.99045e-05 4.56455e-05 -9.17321e-05  4.62222e-05 -4.61697e-07 -8.88647e-05  1.4603e-05 1.38049e-05 -7.22189e-05  -2.55929e-06 2.13254e-05 -6.15649e-05  -1.0658e-05 1.24624e-05 -7.46889e-05  -3.49706e-05 2.18872e-05 -8.3396e-05  5.44792e-05 -1.48215e-05 -8.22141e-05  2.28159e-05 -2.646e-06 -6.17319e-05  2.1984e-06 1.55204e-06 -4.40592e-05  -1.73439e-05 3.54997e-06 -6.20298e-05  -4.86696e-05 1.54979e-05 -7.97082e-05  3.92998e-05 -1.35976e-05 -8.71751e-05  1.42076e-05 -1.13465e-05 -7.45626e-05  4.69508e-06 -1.82639e-05 -6.19528e-05  -1.03876e-05 -1.17868e-05 -7.2762e-05  -4.13552e-05 1.09217e-06 -8.62667e-05  4.76652e-05 -3.2335e-05 -9.43156e-05  2.38931e-05 -3.64853e-05 -8.41942e-05  1.66207e-05 -5.01076e-05 -8.0662e-05  1.67227e-06 -4.30875e-05 -8.74633e-05  -2.42689e-05 -2.51077e-05 -9.13475e-05  
            </DataArray>
            <DataArray type="Float64" Name="Traction" NumberOfComponents="3" format="ascii">
               -0.00013314 -0.000123526 -0.00104851  -5.60468e-05 -0.000185913 -0.00104851  2.12362e-05 -0.000250394 -0.00104851  3.7262e-05 -0.000173787 -0.00104851  0.000120666 -0.000143643 -0.00104851  -0.000188466 -5.02716e-05 -0.00104851  -7.17492e-05 -7.30372e-05 -0.00104851  6.15117e-05 -0.000128104 -0.00104851  8.1195e-05 -7.88103e-05 -0.00104851  0.000168929 -4.8461e-05 -0.00104851  -0.000253734 1.97836e-05 -0.00104851  -0.000127271 5.49208e-05 -0.00104851  5.77023e-05 5.15689e-05 -0.00104851  0.000129937 1.7718e-05 -0.00104851  0.000253669 6.59038e-06 -0.00104851  -0.000167348 4.24811e-05 -0.00104851  -7.0963e-05 8.17653e-05 -0.00104851  2.49979e-05 0.000125698 -0.00104851  8.09448e-05 7.79687e-05 -0.00104851  0.000200435 4.55748e-05 -0.00104851  -0.00013695 0.000131379 -0.00104851  -4.09339e-05 0.000177595 -0.00104851  1.51659e-05 0.000255016 -0.00104851  4.87329e-05 0.000200484 -0.00104851  0.000123765 0.000124004 -0.00104851  
            </DataArray>
         </PointData> 
      </Piece>
   </UnstructuredGrid> 
</VTKFile>
