<?xml version="1.0"?>
<VTKFile type="UnstructuredGrid" version="0.1" byte_order="LittleEndian">
   <UnstructuredGrid>
      <Piece NumberOfPoints="25" NumberOfCells="0" > 
         <Points> 
            <DataArray type="Float64" Name="Position" NumberOfComponents="3" format="ascii"> 
               0  0  20  
               0.75  0  20  
               1.5  0  20  
               2.25  0  20  
               3  0  20  
               0  0.75  20  
               0.75  0.75  20  
               1.5  0.75  20  
               2.25  0.75  20  
               3  0.75  20  
               0  1.5  20  
               0.75  1.5  20  
               1.5  1.5  20  
               2.25  1.5  20  
               3  1.5  20  
               0  2.25  20  
               0.75  2.25  20  
               1.5  2.25  20  
               2.25  2.25  20  
               3  2.25  20  
               0  3  20  
               0.75  3  20  
               1.5  3  20  
               2.25  3  20  
               3  3  20  
            </DataArray>
         </Points> 

         <Cells>
            <DataArray type="Int32" Name="connectivity" NumberOfComponents="1" format="ascii">
               
            </DataArray> 
            <DataArray type="Int32" Name="offsets" NumberOfComponents="1" format="ascii">
               
            </DataArray>
            <DataArray type="UInt8"  Name="types" NumberOfComponents="1" format="ascii">
               
            </DataArray>
         </Cells>
         <PointData Scalars="Rank " Vectors="Displacement Velocity Traction ">
            <DataArray type="UInt32" Name="Rank" NumberOfComponents="1" format="ascii">
               0 0 0 0 0 0 0 0 0 0 0 0 0 0 0 0 0 0 0 0 0 0 0 0 0 
            </DataArray>
            <DataArray type="Float64" Name="Displacement" NumberOfComponents="3" format="ascii">
               8.97574e-07 9.14379e-07 -3.87842e-06  -1.13599e-08 1.5644e-06 -3.87839e-06  -7.1332e-07 1.7323e-06 -3.73337e-06  -6.26402e-07 1.2805e-06 -3.85904e-06  -1.0895e-06 1.85328e-06 -3.87553e-06  1.54329e-06 -1.8681e-09 -3.87697e-06  5.46186e-07 5.57235e-07 -3.5756e-06  -2.05398e-07 8.47306e-07 -3.41636e-06  -5.55498e-07 6.02971e-07 -3.74127e-06  -1.194e-06 1.06924e-06 -3.73179e-06  1.70707e-06 -6.96748e-07 -3.72668e-06  8.41465e-07 -1.85709e-07 -3.4172e-06  1.25856e-09 1.21779e-10 -3.06984e-06  -7.73312e-07 1.65239e-07 -3.44064e-06  -1.61045e-06 6.96039e-07 -3.70388e-06  1.25369e-06 -6.26271e-07 -3.84659e-06  5.93843e-07 -5.59147e-07 -3.74226e-06  1.77181e-07 -7.82855e-07 -3.43646e-06  -5.05053e-07 -5.16179e-07 -3.61189e-06  -1.48103e-06 -2.67409e-08 -3.85853e-06  1.83452e-06 -1.0976e-06 -3.86966e-06  1.06707e-06 -1.20503e-06 -3.74248e-06  7.13447e-07 -1.64097e-06 -3.71439e-06  -2.9482e-08 -1.53001e-06 -3.86962e-06  -9.44599e-07 -9.56739e-07 -3.85748e-06  
            </DataArray>
            <DataArray type="Float64" Name="Velocity" NumberOfComponents="3" format="ascii">
               3.02554e-07 3.48048e-07 -1.82957e-06  1.32459e-07 3.47499e-07 -2.19134e-06  -3.63248e-07 1.43495e-07 -2.39785e-06  -3.6224e-07 2.75812e-07 -2.33649e-06  -2.12222e-07 8.49351e-07 -1.79915e-06  2.81138e-07 1.54621e-07 -2.18066e-06  2.73491e-07 2.99965e-07 -2.60709e-06  -2.13531e-07 3.51203e-07 -2.95196e-06  -3.99335e-07 4.48119e-07 -2.83061e-06  -1.46541e-07 7.11805e-07 -2.15015e-06  9.7109e-08 -3.30879e-07 -2.38383e-06  3.35731e-07 -1.83917e-07 -2.95536e-06  -8.36509e-08 -8.05504e-08 -3.26272e-06  -3.75274e-07 1.24279e-07 -2.97448e-06  -4.95843e-08 3.28499e-07 -2.32899e-06  2.37902e-07 -3.59498e-07 -2.31499e-06  4.30403e-07 -3.97299e-07 -2.83108e-06  1.35613e-07 -3.83664e-07 -2.96938e-06  -2.7187e-07 -2.83514e-07 -2.64897e-06  -2.62605e-07 -1.52548e-07 -2.16142e-06  8.10777e-07 -2.24148e-07 -1.79308e-06  7.00754e-07 -1.62841e-07 -2.16875e-06  3.39534e-07 -8.7254e-08 -2.34624e-06  -1.68983e-07 -3.05821e-07 -2.17606e-06  -3.77415e-07 -3.64614e-07 -1.77501e-06  
            </DataArray>
            <DataArray type="Float64" Name="Traction" NumberOfComponents="3" format="ascii">
               0 0 0  0 0 0  0 0 0  0 0 0  0 0 0  0 0 0  0 0 0  0 0 0  0 0 0  0 0 0  0 0 0  0 0 0  0 0 0  0 0 0  0 0 0  0 0 0  0 0 0  0 0 0  0 0 0  0 0 0  0 0 0  0 0 0  0 0 0  0 0 0  0 0 0  
            </DataArray>
         </PointData> 
      </Piece>
   </UnstructuredGrid> 
</VTKFile>
