<?xml version="1.0"?>
<VTKFile type="UnstructuredGrid" version="0.1" byte_order="LittleEndian">
   <UnstructuredGrid>
      <Piece NumberOfPoints="25" NumberOfCells="0" > 
         <Points> 
            <DataArray type="Float64" Name="Position" NumberOfComponents="3" format="ascii"> 
               0  0  15  
               0.75  0  15  
               1.5  0  15  
               2.25  0  15  
               3  0  15  
               0  0.75  15  
               0.75  0.75  15  
               1.5  0.75  15  
               2.25  0.75  15  
               3  0.75  15  
               0  1.5  15  
               0.75  1.5  15  
               1.5  1.5  15  
               2.25  1.5  15  
               3  1.5  15  
               0  2.25  15  
               0.75  2.25  15  
               1.5  2.25  15  
               2.25  2.25  15  
               3  2.25  15  
               0  3  15  
               0.75  3  15  
               1.5  3  15  
               2.25  3  15  
               3  3  15  
            </DataArray>
         </Points> 

         <Cells>
            <DataArray type="Int32" Name="connectivity" NumberOfComponents="1" format="ascii">
               
            </DataArray> 
            <DataArray type="Int32" Name="offsets" NumberOfComponents="1" format="ascii">
               
            </DataArray>
            <DataArray type="UInt8"  Name="types" NumberOfComponents="1" format="ascii">
               
            </DataArray>
         </Cells>
         <PointData Scalars="Rank " Vectors="Displacement Velocity Traction ">
            <DataArray type="UInt32" Name="Rank" NumberOfComponents="1" format="ascii">
               0 0 0 0 0 0 0 0 0 0 0 0 0 0 0 0 0 0 0 0 0 0 0 0 0 
            </DataArray>
            <DataArray type="Float64" Name="Displacement" NumberOfComponents="3" format="ascii">
               0.000997754 0.000989799 -0.000766797  0.000939067 0.000129618 -0.000755586  0.000723935 -0.000120772 -0.000718637  0.000474578 -0.000151584 -0.000753833  0.000381132 -0.000660469 -0.000766498  6.13246e-05 0.000932017 -0.000753742  6.12576e-05 0.000127391 -0.00067691  -7.47669e-05 -4.79615e-05 -0.000617593  -0.000202908 -0.000148223 -0.000702638  -0.000189454 -0.000755503 -0.000735905  -0.000200414 0.00072659 -0.00071839  -0.000126867 -2.04682e-05 -0.000618394  -0.000227632 -0.000160592 -0.000511682  -0.00031855 -0.000308209 -0.000620358  -0.000240276 -0.000995205 -0.000713741  -0.000252206 0.000485434 -0.000755004  -0.000241671 -0.00016345 -0.000703787  -0.000380251 -0.000264867 -0.000620763  -0.000517263 -0.000468521 -0.000681997  -0.000517342 -0.00118917 -0.000750005  -0.000752876 0.000393304 -0.000767622  -0.000839571 -0.0001609 -0.000736119  -0.00105796 -0.000202175 -0.000713472  -0.00122897 -0.000484374 -0.000749137  -0.0012702 -0.00124042 -0.000758209  
            </DataArray>
            <DataArray type="Float64" Name="Velocity" NumberOfComponents="3" format="ascii">
               0.000432264 0.000539358 -0.000791754  0.000392366 2.82414e-05 -0.000799826  0.000262627 -0.000157651 -0.00077415  0.000115921 -0.000141693 -0.000805939  5.88238e-05 -0.000431725 -0.000804067  -8.88761e-05 0.000498797 -0.000794196  -9.45786e-05 2.18046e-05 -0.000743238  -0.000198906 -0.000105652 -0.000697779  -0.000299482 -0.00013734 -0.000773242  -0.000296355 -0.00049679 -0.000789073  -0.000255828 0.000369868 -0.00076884  -0.000205715 -8.25674e-05 -0.000698069  -0.000263138 -0.000159524 -0.000607445  -0.000321511 -0.000233645 -0.00070054  -0.000273143 -0.000650966 -0.000772531  -0.000244332 0.000223091 -0.000802333  -0.000242071 -0.000179287 -0.000774644  -0.000344677 -0.000211114 -0.00070107  -0.000450945 -0.000332816 -0.000749442  -0.00045862 -0.000778479 -0.000799349  -0.000565471 0.000164617 -0.000794387  -0.000629835 -0.000172602 -0.000785585  -0.000785806 -0.000156544 -0.000768159  -0.000917028 -0.000336722 -0.000793838  -0.000957204 -0.000817317 -0.000790359  
            </DataArray>
            <DataArray type="Float64" Name="Traction" NumberOfComponents="3" format="ascii">
               0.0180826 0.0189167 -0.0497994  0.00295073 0.0220398 -0.0497994  -0.00481337 0.0229323 -0.0497994  -0.0126203 0.0232822 -0.0497994  -0.0275387 0.0250045 -0.0497994  0.0226842 0.00400702 -0.0497994  0.00684794 0.00799987 -0.0497994  -0.0011155 0.00852747 -0.0497994  -0.00989599 0.00806422 -0.0497994  -0.0243504 0.0106643 -0.0497994  0.0232999 -0.0042304 -0.0497994  0.006768 -0.000284224 -0.0497994  -0.00154661 -0.00062315 -0.0497994  -0.0109892 -0.00109424 -0.0497994  -0.0253073 0.00229902 -0.0497994  0.0231902 -0.0122837 -0.0497994  0.00665733 -0.00953203 -0.0497994  -0.00187145 -0.0107482 -0.0497994  -0.0110332 -0.0109755 -0.0497994  -0.0215199 -0.00843998 -0.0497994  0.0249142 -0.0281723 -0.0497994  0.00940819 -0.0238354 -0.0497994  0.00190055 -0.0242104 -0.0497994  -0.00818113 -0.0215915 -0.0497994  -0.0150157 -0.0152811 -0.0497994  
            </DataArray>
         </PointData> 
      </Piece>
   </UnstructuredGrid> 
</VTKFile>
