<?xml version="1.0"?>
<VTKFile type="UnstructuredGrid" version="0.1" byte_order="LittleEndian">
   <UnstructuredGrid>
      <Piece NumberOfPoints="25" NumberOfCells="0" > 
         <Points> 
            <DataArray type="Float64" Name="Position" NumberOfComponents="3" format="ascii"> 
               0  0  20  
               0.75  0  20  
               1.5  0  20  
               2.25  0  20  
               3  0  20  
               0  0.75  20  
               0.75  0.75  20  
               1.5  0.75  20  
               2.25  0.75  20  
               3  0.75  20  
               0  1.5  20  
               0.75  1.5  20  
               1.5  1.5  20  
               2.25  1.5  20  
               3  1.5  20  
               0  2.25  20  
               0.75  2.25  20  
               1.5  2.25  20  
               2.25  2.25  20  
               3  2.25  20  
               0  3  20  
               0.75  3  20  
               1.5  3  20  
               2.25  3  20  
               3  3  20  
            </DataArray>
         </Points> 

         <Cells>
            <DataArray type="Int32" Name="connectivity" NumberOfComponents="1" format="ascii">
               
            </DataArray> 
            <DataArray type="Int32" Name="offsets" NumberOfComponents="1" format="ascii">
               
            </DataArray>
            <DataArray type="UInt8"  Name="types" NumberOfComponents="1" format="ascii">
               
            </DataArray>
         </Cells>
         <PointData Scalars="Rank " Vectors="Displacement Velocity Traction ">
            <DataArray type="UInt32" Name="Rank" NumberOfComponents="1" format="ascii">
               0 0 0 0 0 0 0 0 0 0 0 0 0 0 0 0 0 0 0 0 0 0 0 0 0 
            </DataArray>
            <DataArray type="Float64" Name="Displacement" NumberOfComponents="3" format="ascii">
               9.34586e-07 9.60832e-07 -4.15762e-06  1.93051e-08 1.59036e-06 -4.23408e-06  -7.63089e-07 1.71278e-06 -4.13677e-06  -6.79617e-07 1.30184e-06 -4.24731e-06  -1.09886e-06 1.97344e-06 -4.14974e-06  1.55486e-06 3.35528e-08 -4.23003e-06  5.86215e-07 6.03069e-07 -4.02706e-06  -2.44127e-07 8.94698e-07 -3.94295e-06  -6.22319e-07 6.77814e-07 -4.23532e-06  -1.1908e-06 1.18283e-06 -4.08502e-06  1.67799e-06 -7.39742e-07 -4.12713e-06  8.85387e-07 -2.18579e-07 -3.94458e-06  -1.68711e-08 -1.70293e-08 -3.66838e-06  -8.28965e-07 1.85587e-07 -3.97127e-06  -1.57589e-06 7.3915e-07 -4.09368e-06  1.2677e-06 -6.78691e-07 -4.23058e-06  6.6494e-07 -6.25113e-07 -4.23639e-06  1.99229e-07 -8.39553e-07 -3.96627e-06  -5.47182e-07 -5.59842e-07 -4.07102e-06  -1.4925e-06 -6.07343e-08 -4.20856e-06  1.94672e-06 -1.10927e-06 -4.14275e-06  1.17783e-06 -1.20474e-06 -4.09934e-06  7.57726e-07 -1.61296e-06 -4.10757e-06  -6.76976e-08 -1.54827e-06 -4.22219e-06  -9.97195e-07 -1.00528e-06 -4.12637e-06  
            </DataArray>
            <DataArray type="Float64" Name="Velocity" NumberOfComponents="3" format="ascii">
               1.10504e-07 1.69171e-07 -1.27643e-06  2.05576e-07 -5.17197e-08 -1.75848e-06  -1.89778e-07 -3.47285e-07 -2.07625e-06  -2.27763e-07 -3.27465e-08 -1.97213e-06  1.03651e-07 4.86132e-07 -1.25217e-06  -1.44473e-07 2.35981e-07 -1.74e-06  1.70931e-07 2.08742e-07 -2.39661e-06  -2.14562e-07 1.76492e-07 -2.87831e-06  -3.40486e-07 3.80286e-07 -2.64367e-06  1.74281e-07 5.46811e-07 -1.77171e-06  -4.06714e-07 -1.4714e-07 -2.05756e-06  1.53439e-07 -1.79288e-07 -2.8836e-06  -1.16474e-07 -1.08564e-07 -3.35805e-06  -2.43352e-07 1.00837e-07 -2.90049e-06  4.19492e-07 1.50881e-07 -1.99543e-06  -7.60746e-08 -2.21578e-07 -1.94631e-06  3.56435e-07 -3.32959e-07 -2.64412e-06  1.0803e-07 -2.4621e-07 -2.8967e-06  -1.96025e-07 -2.00898e-07 -2.4394e-06  1.26548e-07 -2.22438e-07 -1.72602e-06  4.36614e-07 9.00969e-08 -1.24576e-06  5.26291e-07 1.58769e-07 -1.79314e-06  1.52412e-07 3.85229e-07 -2.01538e-06  -2.53026e-07 9.51297e-08 -1.73921e-06  -2.08253e-07 -1.75998e-07 -1.21792e-06  
            </DataArray>
            <DataArray type="Float64" Name="Traction" NumberOfComponents="3" format="ascii">
               -6.43086e-06 -5.67587e-06 -1.73136e-05  -2.15027e-06 -1.00987e-05 -1.73136e-05  3.71967e-06 -1.02763e-05 -1.73136e-05  2.57392e-06 -6.57081e-06 -1.73136e-05  3.97606e-06 -1.08684e-05 -1.73136e-05  -1.00796e-05 -1.18868e-06 -1.73136e-05  -4.11811e-06 -3.95634e-06 -1.73136e-05  3.80327e-06 -6.16975e-06 -1.73136e-05  3.7464e-06 -4.37834e-06 -1.73136e-05  4.7614e-06 -5.97835e-06 -1.73136e-05  -1.06963e-05 4.41617e-06 -1.73136e-05  -6.56902e-06 3.78929e-06 -1.73136e-05  2.06516e-06 2.11768e-06 -1.73136e-05  6.22969e-06 -6.9658e-07 -1.73136e-05  9.83978e-06 -2.23293e-06 -1.73136e-05  -6.6596e-06 3.22011e-06 -1.73136e-05  -4.6048e-06 3.79917e-06 -1.73136e-05  -9.07835e-07 6.1678e-06 -1.73136e-05  3.34083e-06 3.63533e-06 -1.73136e-05  8.90195e-06 9.52655e-07 -1.73136e-05  -1.01912e-05 4.7581e-06 -1.73136e-05  -5.56577e-06 4.89863e-06 -1.73136e-05  -1.83613e-06 9.90035e-06 -1.73136e-05  1.52039e-06 9.61677e-06 -1.73136e-05  5.3529e-06 5.08605e-06 -1.73136e-05  
            </DataArray>
         </PointData> 
      </Piece>
   </UnstructuredGrid> 
</VTKFile>
