<?xml version="1.0"?>
<VTKFile type="UnstructuredGrid" version="0.1" byte_order="LittleEndian">
   <UnstructuredGrid>
      <Piece NumberOfPoints="25" NumberOfCells="0" > 
         <Points> 
            <DataArray type="Float64" Name="Position" NumberOfComponents="3" format="ascii"> 
               0  0  20  
               0.75  0  20  
               1.5  0  20  
               2.25  0  20  
               3  0  20  
               0  0.75  20  
               0.75  0.75  20  
               1.5  0.75  20  
               2.25  0.75  20  
               3  0.75  20  
               0  1.5  20  
               0.75  1.5  20  
               1.5  1.5  20  
               2.25  1.5  20  
               3  1.5  20  
               0  2.25  20  
               0.75  2.25  20  
               1.5  2.25  20  
               2.25  2.25  20  
               3  2.25  20  
               0  3  20  
               0.75  3  20  
               1.5  3  20  
               2.25  3  20  
               3  3  20  
            </DataArray>
         </Points> 

         <Cells>
            <DataArray type="Int32" Name="connectivity" NumberOfComponents="1" format="ascii">
               
            </DataArray> 
            <DataArray type="Int32" Name="offsets" NumberOfComponents="1" format="ascii">
               
            </DataArray>
            <DataArray type="UInt8"  Name="types" NumberOfComponents="1" format="ascii">
               
            </DataArray>
         </Cells>
         <PointData Scalars="Rank " Vectors="Displacement Velocity Traction ">
            <DataArray type="UInt32" Name="Rank" NumberOfComponents="1" format="ascii">
               0 0 0 0 0 0 0 0 0 0 0 0 0 0 0 0 0 0 0 0 0 0 0 0 0 
            </DataArray>
            <DataArray type="Float64" Name="Displacement" NumberOfComponents="3" format="ascii">
               0.000199865 0.000207085 -0.000894229  7.11968e-07 0.000354641 -0.000884567  -0.000125031 0.000418635 -0.000843421  -0.000111113 0.000299415 -0.000883515  -0.000232149 0.000386354 -0.000896179  0.000347584 7.33531e-06 -0.000881939  0.000106559 0.000112604 -0.000796469  -4.25274e-05 0.00017878 -0.000729942  -0.000116264 0.000116449 -0.000827217  -0.000296475 0.000201995 -0.000863033  0.000413301 -0.00011793 -0.00084243  0.000173867 -3.64533e-05 -0.000730764  -4.30591e-06 9.74477e-07 -0.000609541  -0.000168474 2.87929e-05 -0.000733274  -0.00040469 0.00011556 -0.000838602  0.000296531 -0.000104982 -0.000884159  0.000112894 -0.000110531 -0.000828547  2.42838e-05 -0.000163579 -0.000733761  -0.000107436 -0.000103029 -0.000802886  -0.000343501 -1.60923e-05 -0.000879453  0.000383651 -0.000227605 -0.00089584  0.000198801 -0.000290978 -0.00086275  0.000111836 -0.000399885 -0.00083773  -2.13433e-05 -0.000339839 -0.000877774  -0.000216412 -0.000210436 -0.000886252  
            </DataArray>
            <DataArray type="Float64" Name="Velocity" NumberOfComponents="3" format="ascii">
               0.000189422 0.000194343 -0.000905165  7.91678e-06 0.000328351 -0.000915443  -0.000115632 0.000386658 -0.000887597  -0.000111554 0.000282459 -0.000923003  -0.00021868 0.0003696 -0.000919955  0.00031814 1.15269e-05 -0.000909248  9.85221e-05 0.000106766 -0.000852838  -4.49861e-05 0.000168972 -0.000802674  -0.00012051 0.000116901 -0.000887572  -0.000282281 0.000199641 -0.000904476  0.000375597 -0.00010981 -0.000881413  0.000159881 -4.02463e-05 -0.000802826  -1.02779e-05 -4.77348e-06 -0.000701511  -0.000168474 2.60638e-05 -0.000806152  -0.000381885 0.000104845 -0.000886936  0.000271929 -9.93913e-05 -0.000918427  0.000108399 -0.000112904 -0.000888882  1.99903e-05 -0.000160961 -0.00080663  -0.000110006 -0.00010174 -0.000860558  -0.000327638 -2.63116e-05 -0.000916556  0.000359021 -0.000204667 -0.000908008  0.000189436 -0.000271398 -0.000900172  9.90237e-05 -0.000371963 -0.000881703  -3.06079e-05 -0.000317567 -0.000910226  -0.00021145 -0.000205369 -0.000905553  
            </DataArray>
            <DataArray type="Float64" Name="Traction" NumberOfComponents="3" format="ascii">
               0 0 0  0 0 0  0 0 0  0 0 0  0 0 0  0 0 0  0 0 0  0 0 0  0 0 0  0 0 0  0 0 0  0 0 0  0 0 0  0 0 0  0 0 0  0 0 0  0 0 0  0 0 0  0 0 0  0 0 0  0 0 0  0 0 0  0 0 0  0 0 0  0 0 0  
            </DataArray>
         </PointData> 
      </Piece>
   </UnstructuredGrid> 
</VTKFile>
