<?xml version="1.0"?>
<VTKFile type="UnstructuredGrid" version="0.1" byte_order="LittleEndian">
   <UnstructuredGrid>
      <Piece NumberOfPoints="25" NumberOfCells="0" > 
         <Points> 
            <DataArray type="Float64" Name="Position" NumberOfComponents="3" format="ascii"> 
               0  0  15  
               0.75  0  15  
               1.5  0  15  
               2.25  0  15  
               3  0  15  
               0  0.75  15  
               0.75  0.75  15  
               1.5  0.75  15  
               2.25  0.75  15  
               3  0.75  15  
               0  1.5  15  
               0.75  1.5  15  
               1.5  1.5  15  
               2.25  1.5  15  
               3  1.5  15  
               0  2.25  15  
               0.75  2.25  15  
               1.5  2.25  15  
               2.25  2.25  15  
               3  2.25  15  
               0  3  15  
               0.75  3  15  
               1.5  3  15  
               2.25  3  15  
               3  3  15  
            </DataArray>
         </Points> 

         <Cells>
            <DataArray type="Int32" Name="connectivity" NumberOfComponents="1" format="ascii">
               
            </DataArray> 
            <DataArray type="Int32" Name="offsets" NumberOfComponents="1" format="ascii">
               
            </DataArray>
            <DataArray type="UInt8"  Name="types" NumberOfComponents="1" format="ascii">
               
            </DataArray>
         </Cells>
         <PointData Scalars="Rank " Vectors="Displacement Velocity Traction ">
            <DataArray type="UInt32" Name="Rank" NumberOfComponents="1" format="ascii">
               0 0 0 0 0 0 0 0 0 0 0 0 0 0 0 0 0 0 0 0 0 0 0 0 0 
            </DataArray>
            <DataArray type="Float64" Name="Displacement" NumberOfComponents="3" format="ascii">
               3.04248e-05 1.06017e-05 -2.93018e-06  3.04974e-05 -4.4015e-07 -3.75865e-06  2.79196e-05 -4.65816e-07 -4.24004e-06  2.47179e-05 3.52074e-06 -4.16586e-06  2.40786e-05 2.91479e-06 -2.92855e-06  7.14591e-06 1.0387e-05 -3.70231e-06  7.5196e-06 6.41134e-08 -4.79081e-06  7.6696e-06 -1.81773e-07 -5.45906e-06  7.44634e-06 3.26101e-06 -5.21885e-06  7.76596e-06 1.6487e-06 -3.86526e-06  8.91669e-06 9.84918e-06 -4.18919e-06  7.60675e-06 8.22413e-07 -5.46984e-06  3.83222e-06 -2.03533e-06 -6.08941e-06  1.38956e-07 2.66387e-06 -5.49982e-06  -1.27864e-06 -4.43031e-07 -4.1365e-06  7.48843e-06 8.75251e-06 -4.10842e-06  7.07886e-06 1.02452e-06 -5.22282e-06  6.9017e-06 -4.2878e-06 -5.50342e-06  7.6271e-06 2.54252e-06 -4.85849e-06  7.268e-06 1.02319e-06 -3.73044e-06  -3.5897e-06 8.23008e-06 -2.89911e-06  -3.94677e-06 8.52831e-07 -3.89562e-06  -5.1553e-06 -5.82417e-06 -4.15995e-06  -3.16205e-06 1.34391e-06 -3.72278e-06  -8.38339e-07 2.90286e-06 -2.89446e-06  
            </DataArray>
            <DataArray type="Float64" Name="Velocity" NumberOfComponents="3" format="ascii">
               3.19295e-05 9.84364e-06 3.82293e-06  3.19974e-05 9.84416e-07 3.04375e-06  3.01318e-05 3.38258e-06 2.41772e-06  2.75927e-05 4.70633e-06 2.60165e-06  2.71221e-05 1.25776e-06 3.76558e-06  1.15999e-05 1.0317e-05 3.12593e-06  1.1963e-05 1.52477e-06 1.57329e-06  1.30724e-05 2.65964e-06 8.58794e-07  1.43888e-05 3.62223e-06 1.51736e-06  1.53393e-05 3.12329e-07 2.55954e-06  1.1513e-05 1.01028e-05 2.49011e-06  1.05932e-05 2.02692e-06 8.52062e-07  8.15052e-06 -3.78857e-07 -1.81644e-07  6.45201e-06 1.57951e-06 8.62976e-07  6.26709e-06 -1.80296e-06 2.39238e-06  8.51679e-06 8.92794e-06 2.65905e-06  8.45256e-06 1.67763e-06 1.50945e-06  9.03069e-06 -3.08172e-06 8.40249e-07  1.03539e-05 7.42068e-07 1.59116e-06  1.04493e-05 -1.25294e-06 2.96766e-06  2.7066e-06 8.65473e-06 3.82955e-06  2.83337e-06 9.57363e-07 2.56968e-06  3.09564e-06 -5.09844e-06 2.42152e-06  5.62732e-06 -3.35817e-07 3.05317e-06  7.5585e-06 3.69878e-07 3.69099e-06  
            </DataArray>
            <DataArray type="Float64" Name="Traction" NumberOfComponents="3" format="ascii">
               0.00042635 0.000415086 0.000458259  -0.000177485 0.000281711 0.000458259  -5.02462e-06 0.000234619 0.000458259  0.000114561 0.000384239 0.000458259  -0.000540539 0.000510324 0.000458259  0.0006037 -0.000161306 0.000458259  7.37199e-05 9.53938e-06 0.000458259  5.30145e-05 0.000187248 0.000458259  9.69581e-05 5.44181e-05 0.000458259  -0.000556263 -2.0544e-05 0.000458259  0.000672764 -1.12507e-05 0.000458259  0.000189573 3.0269e-05 0.000458259  5.7051e-05 2.99347e-05 0.000458259  3.0502e-05 9.25066e-06 0.000458259  -0.000731243 -2.04077e-05 0.000458259  0.000655581 0.000113313 0.000458259  4.75309e-05 4.20971e-05 0.000458259  3.32026e-05 -0.000107018 0.000458259  7.7618e-05 -3.96665e-05 0.000458259  -9.93382e-05 -0.000103425 0.000458259  0.000663984 -0.000623452 0.000458259  -2.50999e-05 -0.000498213 0.000458259  6.66176e-05 -0.000537931 0.000458259  4.8335e-05 -7.49509e-05 0.000458259  0.000482684 0.000381292 0.000458259  
            </DataArray>
         </PointData> 
      </Piece>
   </UnstructuredGrid> 
</VTKFile>
