<?xml version="1.0"?>
<VTKFile type="UnstructuredGrid" version="0.1" byte_order="LittleEndian">
   <UnstructuredGrid>
      <Piece NumberOfPoints="25" NumberOfCells="0" > 
         <Points> 
            <DataArray type="Float64" Name="Position" NumberOfComponents="3" format="ascii"> 
               0  0  20  
               0.75  0  20  
               1.5  0  20  
               2.25  0  20  
               3  0  20  
               0  0.75  20  
               0.75  0.75  20  
               1.5  0.75  20  
               2.25  0.75  20  
               3  0.75  20  
               0  1.5  20  
               0.75  1.5  20  
               1.5  1.5  20  
               2.25  1.5  20  
               3  1.5  20  
               0  2.25  20  
               0.75  2.25  20  
               1.5  2.25  20  
               2.25  2.25  20  
               3  2.25  20  
               0  3  20  
               0.75  3  20  
               1.5  3  20  
               2.25  3  20  
               3  3  20  
            </DataArray>
         </Points> 

         <Cells>
            <DataArray type="Int32" Name="connectivity" NumberOfComponents="1" format="ascii">
               
            </DataArray> 
            <DataArray type="Int32" Name="offsets" NumberOfComponents="1" format="ascii">
               
            </DataArray>
            <DataArray type="UInt8"  Name="types" NumberOfComponents="1" format="ascii">
               
            </DataArray>
         </Cells>
         <PointData Scalars="Rank " Vectors="Displacement Velocity Traction ">
            <DataArray type="UInt32" Name="Rank" NumberOfComponents="1" format="ascii">
               0 0 0 0 0 0 0 0 0 0 0 0 0 0 0 0 0 0 0 0 0 0 0 0 0 
            </DataArray>
            <DataArray type="Float64" Name="Displacement" NumberOfComponents="3" format="ascii">
               0.000201776 0.000209045 -0.000903362  7.93119e-07 0.000357952 -0.000893804  -0.000126196 0.000422533 -0.000852378  -0.000112237 0.000302263 -0.000892829  -0.000234353 0.00039008 -0.000905461  0.000350791 7.45191e-06 -0.000891114  0.000107553 0.00011368 -0.000805076  -4.29802e-05 0.000180483 -0.000738044  -0.000117479 0.000117627 -0.000836174  -0.00029932 0.000204008 -0.000872161  0.000417088 -0.000119037 -0.000851324  0.000175479 -3.68591e-05 -0.000738867  -4.40908e-06 9.26171e-07 -0.000616623  -0.000170172 2.90556e-05 -0.000741411  -0.00040854 0.000116617 -0.000847553  0.000299273 -0.000105984 -0.000893426  0.000113988 -0.00011167 -0.000837517  2.44858e-05 -0.000165202 -0.000741902  -0.000108545 -0.000104055 -0.000811571  -0.000346805 -1.63581e-05 -0.000888702  0.00038727 -0.000229669 -0.000905001  0.000200711 -0.000293715 -0.000871833  0.000112834 -0.000403635 -0.000846628  -2.16516e-05 -0.000343041 -0.000886959  -0.000218544 -0.000212507 -0.000895389  
            </DataArray>
            <DataArray type="Float64" Name="Velocity" NumberOfComponents="3" format="ascii">
               0.000191093 0.000195959 -0.000913267  8.11508e-06 0.000331039 -0.000923693  -0.000116436 0.00038982 -0.000895697  -0.000112429 0.000284823 -0.000931379  -0.000220484 0.000372594 -0.000928235  0.000320789 1.16603e-05 -0.000917455  9.93842e-05 0.000107643 -0.000860675  -4.52827e-05 0.000170336 -0.000810162  -0.000121472 0.000117878 -0.000895731  -0.000284575 0.000201254 -0.00091272  0.000378698 -0.000110645 -0.000889445  0.000161209 -4.05763e-05 -0.000810304  -1.03173e-05 -4.83061e-06 -0.000708213  -0.000169846 2.62655e-05 -0.000813684  -0.000385027 0.000105672 -0.000895079  0.000274203 -0.000100196 -0.00092673  0.000109331 -0.000113848 -0.000897035  2.01992e-05 -0.0001623 -0.000814157  -0.000110904 -0.000102596 -0.00086848  -0.000330364 -2.65813e-05 -0.000924875  0.000361903 -0.000206352 -0.000916121  0.000190962 -0.00027362 -0.000908351  9.98437e-05 -0.000375033 -0.000889776  -3.08359e-05 -0.000320204 -0.000918482  -0.00021319 -0.000207137 -0.000913705  
            </DataArray>
            <DataArray type="Float64" Name="Traction" NumberOfComponents="3" format="ascii">
               0 0 0  0 0 0  0 0 0  0 0 0  0 0 0  0 0 0  0 0 0  0 0 0  0 0 0  0 0 0  0 0 0  0 0 0  0 0 0  0 0 0  0 0 0  0 0 0  0 0 0  0 0 0  0 0 0  0 0 0  0 0 0  0 0 0  0 0 0  0 0 0  0 0 0  
            </DataArray>
         </PointData> 
      </Piece>
   </UnstructuredGrid> 
</VTKFile>
