<?xml version="1.0"?>
<VTKFile type="UnstructuredGrid" version="0.1" byte_order="LittleEndian">
   <UnstructuredGrid>
      <Piece NumberOfPoints="25" NumberOfCells="0" > 
         <Points> 
            <DataArray type="Float64" Name="Position" NumberOfComponents="3" format="ascii"> 
               0  0  20  
               0.75  0  20  
               1.5  0  20  
               2.25  0  20  
               3  0  20  
               0  0.75  20  
               0.75  0.75  20  
               1.5  0.75  20  
               2.25  0.75  20  
               3  0.75  20  
               0  1.5  20  
               0.75  1.5  20  
               1.5  1.5  20  
               2.25  1.5  20  
               3  1.5  20  
               0  2.25  20  
               0.75  2.25  20  
               1.5  2.25  20  
               2.25  2.25  20  
               3  2.25  20  
               0  3  20  
               0.75  3  20  
               1.5  3  20  
               2.25  3  20  
               3  3  20  
            </DataArray>
         </Points> 

         <Cells>
            <DataArray type="Int32" Name="connectivity" NumberOfComponents="1" format="ascii">
               
            </DataArray> 
            <DataArray type="Int32" Name="offsets" NumberOfComponents="1" format="ascii">
               
            </DataArray>
            <DataArray type="UInt8"  Name="types" NumberOfComponents="1" format="ascii">
               
            </DataArray>
         </Cells>
         <PointData Scalars="Rank " Vectors="Displacement Velocity Traction ">
            <DataArray type="UInt32" Name="Rank" NumberOfComponents="1" format="ascii">
               0 0 0 0 0 0 0 0 0 0 0 0 0 0 0 0 0 0 0 0 0 0 0 0 0 
            </DataArray>
            <DataArray type="Float64" Name="Displacement" NumberOfComponents="3" format="ascii">
               -5.69471e-07 -4.63254e-07 -1.37546e-06  6.03676e-07 -1.33016e-06 -2.45128e-06  4.98157e-07 -1.69609e-06 -3.11585e-06  3.69948e-07 -9.37988e-07 -2.98716e-06  1.40889e-06 -6.31874e-07 -1.42103e-06  -1.59401e-06 6.6814e-07 -2.36192e-06  -1.79929e-07 -5.21216e-08 -3.95095e-06  -3.04304e-07 -3.05921e-07 -4.81486e-06  -2.14322e-07 1.82083e-07 -4.36037e-06  1.12488e-06 8.64059e-08 -2.74051e-06  -1.88675e-06 6.2238e-07 -3.03238e-06  -4.12373e-07 -2.06563e-07 -4.82642e-06  -3.03233e-07 -2.25937e-07 -5.77156e-06  -1.71063e-09 4.76991e-08 -4.85147e-06  1.6213e-06 -5.12634e-07 -3.04098e-06  -1.0825e-06 4.19358e-07 -2.90569e-06  6.95875e-08 -1.51206e-07 -4.36829e-06  -2.60449e-08 9.4129e-08 -4.86419e-06  -8.3144e-08 4.61677e-08 -4.00463e-06  1.23758e-06 -6.08587e-07 -2.46742e-06  -8.27932e-07 1.41462e-06 -1.35417e-06  -8.60639e-08 1.17533e-06 -2.75794e-06  -6.38195e-07 1.69734e-06 -3.04253e-06  -7.99924e-07 1.34643e-06 -2.41586e-06  2.12606e-07 4.28636e-07 -1.42758e-06  
            </DataArray>
            <DataArray type="Float64" Name="Velocity" NumberOfComponents="3" format="ascii">
               -2.32103e-06 -2.35628e-06 5.11059e-06  4.28618e-07 -3.84569e-06 4.5581e-06  1.9548e-06 -3.83262e-06 4.11359e-06  1.82043e-06 -2.93183e-06 4.24263e-06  3.27572e-06 -4.2638e-06 5.00182e-06  -3.97314e-06 3.98078e-07 4.64241e-06  -1.32978e-06 -1.26081e-06 3.33957e-06  2.49717e-07 -1.84789e-06 2.92904e-06  1.13373e-06 -1.31323e-06 3.51e-06  2.79901e-06 -2.30099e-06 3.98889e-06  -3.95925e-06 1.99397e-06 4.2132e-06  -1.94678e-06 2.82558e-07 2.93544e-06  -1.84672e-07 -8.41076e-08 2.08184e-06  1.44126e-06 -2.9242e-07 2.94808e-06  3.39327e-06 -1.78647e-06 3.96509e-06  -3.06398e-06 1.87358e-06 4.32082e-06  -1.44053e-06 1.21292e-06 3.49802e-06  -4.49222e-07 1.6276e-06 2.9214e-06  9.29663e-07 1.18697e-06 3.40036e-06  3.35251e-06 -3.03852e-07 4.37331e-06  -4.48871e-06 3.34153e-06 5.13834e-06  -2.56378e-06 2.9482e-06 4.03971e-06  -2.01808e-06 3.66382e-06 4.05859e-06  -5.30083e-07 3.68019e-06 4.53164e-06  2.01679e-06 2.2935e-06 4.80359e-06  
            </DataArray>
            <DataArray type="Float64" Name="Traction" NumberOfComponents="3" format="ascii">
               0 0 0  0 0 0  0 0 0  0 0 0  0 0 0  0 0 0  0 0 0  0 0 0  0 0 0  0 0 0  0 0 0  0 0 0  0 0 0  0 0 0  0 0 0  0 0 0  0 0 0  0 0 0  0 0 0  0 0 0  0 0 0  0 0 0  0 0 0  0 0 0  0 0 0  
            </DataArray>
         </PointData> 
      </Piece>
   </UnstructuredGrid> 
</VTKFile>
