<?xml version="1.0"?>
<VTKFile type="UnstructuredGrid" version="0.1" byte_order="LittleEndian">
   <UnstructuredGrid>
      <Piece NumberOfPoints="25" NumberOfCells="0" > 
         <Points> 
            <DataArray type="Float64" Name="Position" NumberOfComponents="3" format="ascii"> 
               0  0  20  
               0.75  0  20  
               1.5  0  20  
               2.25  0  20  
               3  0  20  
               0  0.75  20  
               0.75  0.75  20  
               1.5  0.75  20  
               2.25  0.75  20  
               3  0.75  20  
               0  1.5  20  
               0.75  1.5  20  
               1.5  1.5  20  
               2.25  1.5  20  
               3  1.5  20  
               0  2.25  20  
               0.75  2.25  20  
               1.5  2.25  20  
               2.25  2.25  20  
               3  2.25  20  
               0  3  20  
               0.75  3  20  
               1.5  3  20  
               2.25  3  20  
               3  3  20  
            </DataArray>
         </Points> 

         <Cells>
            <DataArray type="Int32" Name="connectivity" NumberOfComponents="1" format="ascii">
               
            </DataArray> 
            <DataArray type="Int32" Name="offsets" NumberOfComponents="1" format="ascii">
               
            </DataArray>
            <DataArray type="UInt8"  Name="types" NumberOfComponents="1" format="ascii">
               
            </DataArray>
         </Cells>
         <PointData Scalars="Rank " Vectors="Displacement Velocity Traction ">
            <DataArray type="UInt32" Name="Rank" NumberOfComponents="1" format="ascii">
               0 0 0 0 0 0 0 0 0 0 0 0 0 0 0 0 0 0 0 0 0 0 0 0 0 
            </DataArray>
            <DataArray type="Float64" Name="Displacement" NumberOfComponents="3" format="ascii">
               4.67401e-07 4.66614e-07 -1.88608e-06  -2.90113e-08 8.58738e-07 -1.77044e-06  -2.83535e-07 1.04158e-06 -1.62268e-06  -2.44083e-07 7.22681e-07 -1.72917e-06  -5.96938e-07 8.6123e-07 -1.89532e-06  8.60038e-07 -2.79753e-08 -1.77101e-06  2.43915e-07 2.45148e-07 -1.45071e-06  -6.16462e-08 4.05349e-07 -1.22966e-06  -2.1656e-07 2.25169e-07 -1.48537e-06  -7.06941e-07 4.07148e-07 -1.7086e-06  1.0378e-06 -2.81257e-07 -1.62201e-06  4.04954e-07 -5.79185e-08 -1.22963e-06  2.45445e-08 2.38543e-08 -8.90728e-07  -3.58106e-07 5.91657e-08 -1.2375e-06  -1.00038e-06 2.86137e-07 -1.62368e-06  7.17426e-07 -2.44123e-07 -1.72743e-06  2.23896e-07 -2.18058e-07 -1.48575e-06  6.20654e-08 -3.60074e-07 -1.23691e-06  -2.24931e-07 -2.26555e-07 -1.45965e-06  -8.37274e-07 1.04181e-08 -1.76747e-06  8.59622e-07 -5.98756e-07 -1.89387e-06  4.07229e-07 -7.08641e-07 -1.71005e-06  2.91145e-07 -1.0065e-06 -1.62547e-06  1.0442e-08 -8.50368e-07 -1.76941e-06  -4.78409e-07 -4.85092e-07 -1.88806e-06  
            </DataArray>
            <DataArray type="Float64" Name="Velocity" NumberOfComponents="3" format="ascii">
               5.5096e-07 5.54131e-07 -2.3364e-06  -4.15827e-08 1e-06 -2.30076e-06  -4.81373e-07 1.1203e-06 -2.16845e-06  -4.04315e-07 7.99313e-07 -2.25062e-06  -7.05525e-07 1.15872e-06 -2.34782e-06  9.9782e-07 -3.88976e-08 -2.3018e-06  3.42548e-07 3.45724e-07 -2.04987e-06  -1.10722e-07 5.35925e-07 -1.91999e-06  -3.25764e-07 3.55944e-07 -2.13505e-06  -7.61184e-07 6.65222e-07 -2.18993e-06  1.11025e-06 -4.75097e-07 -2.16612e-06  5.34437e-07 -1.01351e-07 -1.91993e-06  1.28067e-08 1.14565e-08 -1.68308e-06  -4.77773e-07 9.85456e-08 -1.93415e-06  -1.04824e-06 4.71357e-07 -2.16016e-06  7.8614e-07 -4.04603e-07 -2.24543e-06  3.524e-07 -3.2898e-07 -2.13579e-06  1.05243e-07 -4.83141e-07 -1.93204e-06  -3.11587e-07 -3.17353e-07 -2.06956e-06  -9.52637e-07 1.84332e-08 -2.2911e-06  1.15213e-06 -7.09262e-07 -2.34435e-06  6.65532e-07 -7.66026e-07 -2.19423e-06  4.82239e-07 -1.06369e-06 -2.16465e-06  1.94424e-08 -9.81743e-07 -2.29645e-06  -5.7326e-07 -5.85349e-07 -2.33509e-06  
            </DataArray>
            <DataArray type="Float64" Name="Traction" NumberOfComponents="3" format="ascii">
               0 0 0  0 0 0  0 0 0  0 0 0  0 0 0  0 0 0  0 0 0  0 0 0  0 0 0  0 0 0  0 0 0  0 0 0  0 0 0  0 0 0  0 0 0  0 0 0  0 0 0  0 0 0  0 0 0  0 0 0  0 0 0  0 0 0  0 0 0  0 0 0  0 0 0  
            </DataArray>
         </PointData> 
      </Piece>
   </UnstructuredGrid> 
</VTKFile>
