<?xml version="1.0"?>
<VTKFile type="UnstructuredGrid" version="0.1" byte_order="LittleEndian">
   <UnstructuredGrid>
      <Piece NumberOfPoints="25" NumberOfCells="0" > 
         <Points> 
            <DataArray type="Float64" Name="Position" NumberOfComponents="3" format="ascii"> 
               0  0  20  
               0.75  0  20  
               1.5  0  20  
               2.25  0  20  
               3  0  20  
               0  0.75  20  
               0.75  0.75  20  
               1.5  0.75  20  
               2.25  0.75  20  
               3  0.75  20  
               0  1.5  20  
               0.75  1.5  20  
               1.5  1.5  20  
               2.25  1.5  20  
               3  1.5  20  
               0  2.25  20  
               0.75  2.25  20  
               1.5  2.25  20  
               2.25  2.25  20  
               3  2.25  20  
               0  3  20  
               0.75  3  20  
               1.5  3  20  
               2.25  3  20  
               3  3  20  
            </DataArray>
         </Points> 

         <Cells>
            <DataArray type="Int32" Name="connectivity" NumberOfComponents="1" format="ascii">
               
            </DataArray> 
            <DataArray type="Int32" Name="offsets" NumberOfComponents="1" format="ascii">
               
            </DataArray>
            <DataArray type="UInt8"  Name="types" NumberOfComponents="1" format="ascii">
               
            </DataArray>
         </Cells>
         <PointData Scalars="Rank " Vectors="Displacement Velocity Traction ">
            <DataArray type="UInt32" Name="Rank" NumberOfComponents="1" format="ascii">
               0 0 0 0 0 0 0 0 0 0 0 0 0 0 0 0 0 0 0 0 0 0 0 0 0 
            </DataArray>
            <DataArray type="Float64" Name="Displacement" NumberOfComponents="3" format="ascii">
               -2.05716e-06 -2.05094e-06 1.77315e-06  7.3522e-07 -3.54864e-06 6.3646e-07  1.71379e-06 -3.60219e-06 -8.79259e-08  1.59565e-06 -2.57996e-06 5.76819e-08  3.29824e-06 -3.35515e-06 1.65137e-06  -3.7983e-06 7.04315e-07 7.54018e-07  -1.05225e-06 -9.44728e-07 -1.19684e-06  -4.52304e-08 -1.45445e-06 -1.98348e-06  6.69962e-07 -8.01246e-07 -1.3444e-06  2.64149e-06 -1.52165e-06 2.63721e-08  -3.81886e-06 1.78572e-06 6.14873e-08  -1.58236e-06 1.96387e-08 -1.9788e-06  -3.18321e-07 -2.08475e-07 -3.13375e-06  9.42099e-07 -1.20364e-07 -2.0054e-06  3.21199e-06 -1.50741e-06 -1.90911e-07  -2.8037e-06 1.64615e-06 2.00472e-07  -9.78528e-07 7.59908e-07 -1.35763e-06  -2.81027e-07 1.1605e-06 -2.02765e-06  5.86097e-07 8.93446e-07 -1.18847e-06  3.03913e-06 -5.81813e-07 4.33177e-07  -3.71418e-06 3.34213e-06 1.84671e-06  -1.87887e-06 2.79138e-06 6.15364e-08  -1.7759e-06 3.4923e-06 -9.14163e-08  -8.89791e-07 3.39215e-06 6.19448e-07  1.55202e-06 1.91506e-06 1.4242e-06  
            </DataArray>
            <DataArray type="Float64" Name="Velocity" NumberOfComponents="3" format="ascii">
               -2.11441e-06 -2.41833e-06 4.07911e-06  -5.56428e-08 -2.69426e-06 4.5412e-06  1.70388e-06 -1.64143e-06 4.86968e-06  1.905e-06 -1.85525e-06 4.7653e-06  2.30864e-06 -3.87073e-06 3.96495e-06  -2.48189e-06 -3.6174e-07 4.52592e-06  -1.27115e-06 -1.44671e-06 4.91236e-06  5.68912e-07 -1.5825e-06 5.68616e-06  1.58594e-06 -1.67542e-06 5.57258e-06  1.63688e-06 -2.57297e-06 4.15837e-06  -1.5506e-06 1.45459e-06 4.96318e-06  -1.50463e-06 3.941e-07 5.73263e-06  1.96863e-07 1.56208e-07 6.11175e-06  1.3974e-06 -1.88127e-07 5.70597e-06  1.13145e-06 -1.13017e-06 4.45061e-06  -1.94203e-06 1.8152e-06 4.8793e-06  -1.71381e-06 1.56148e-06 5.57385e-06  -2.59751e-07 1.56747e-06 5.71017e-06  1.11944e-06 1.38806e-06 5.04575e-06  1.89794e-06 4.78416e-07 4.13356e-06  -4.14339e-06 2.32451e-06 4.22678e-06  -2.86405e-06 1.76389e-06 4.26794e-06  -1.31333e-06 1.47144e-06 4.67524e-06  3.75241e-07 2.31546e-06 4.39187e-06  2.01236e-06 2.15888e-06 3.45336e-06  
            </DataArray>
            <DataArray type="Float64" Name="Traction" NumberOfComponents="3" format="ascii">
               1.00375e-05 9.70676e-06 4.08739e-05  -7.51725e-06 3.15196e-05 4.08739e-05  -1.23284e-05 2.97479e-05 4.08739e-05  -1.61484e-05 2.23634e-05 4.08739e-05  -3.23886e-05 3.40339e-05 4.08739e-05  3.52912e-05 -7.10441e-06 4.08739e-05  1.35376e-05 1.109e-05 4.08739e-05  -6.76865e-07 1.39203e-05 4.08739e-05  -8.78792e-06 9.20715e-06 4.08739e-05  -2.39936e-05 1.72598e-05 4.08739e-05  3.11521e-05 -1.28055e-05 4.08739e-05  1.43613e-05 -2.04335e-06 4.08739e-05  -2.4283e-06 -1.94827e-06 4.08739e-05  -1.10687e-05 5.04837e-08 4.08739e-05  -2.68977e-05 1.18177e-05 4.08739e-05  2.51189e-05 -1.76761e-05 4.08739e-05  1.0399e-05 -9.66506e-06 4.08739e-05  -1.3249e-06 -1.17648e-05 4.08739e-05  -1.05949e-05 -9.943e-06 4.08739e-05  -2.82081e-05 4.33928e-06 4.08739e-05  3.68377e-05 -3.42912e-05 4.08739e-05  1.84897e-05 -2.46449e-05 4.08739e-05  1.03202e-05 -2.79342e-05 4.08739e-05  3.6276e-06 -2.82391e-05 4.08739e-05  -1.1956e-05 -1.27322e-05 4.08739e-05  
            </DataArray>
         </PointData> 
      </Piece>
   </UnstructuredGrid> 
</VTKFile>
