<?xml version="1.0"?>
<VTKFile type="UnstructuredGrid" version="0.1" byte_order="LittleEndian">
   <UnstructuredGrid>
      <Piece NumberOfPoints="25" NumberOfCells="0" > 
         <Points> 
            <DataArray type="Float64" Name="Position" NumberOfComponents="3" format="ascii"> 
               0  0  15  
               0.75  0  15  
               1.5  0  15  
               2.25  0  15  
               3  0  15  
               0  0.75  15  
               0.75  0.75  15  
               1.5  0.75  15  
               2.25  0.75  15  
               3  0.75  15  
               0  1.5  15  
               0.75  1.5  15  
               1.5  1.5  15  
               2.25  1.5  15  
               3  1.5  15  
               0  2.25  15  
               0.75  2.25  15  
               1.5  2.25  15  
               2.25  2.25  15  
               3  2.25  15  
               0  3  15  
               0.75  3  15  
               1.5  3  15  
               2.25  3  15  
               3  3  15  
            </DataArray>
         </Points> 

         <Cells>
            <DataArray type="Int32" Name="connectivity" NumberOfComponents="1" format="ascii">
               
            </DataArray> 
            <DataArray type="Int32" Name="offsets" NumberOfComponents="1" format="ascii">
               
            </DataArray>
            <DataArray type="UInt8"  Name="types" NumberOfComponents="1" format="ascii">
               
            </DataArray>
         </Cells>
         <PointData Scalars="Rank " Vectors="Displacement Velocity Traction ">
            <DataArray type="UInt32" Name="Rank" NumberOfComponents="1" format="ascii">
               0 0 0 0 0 0 0 0 0 0 0 0 0 0 0 0 0 0 0 0 0 0 0 0 0 
            </DataArray>
            <DataArray type="Float64" Name="Displacement" NumberOfComponents="3" format="ascii">
               7.99635e-07 9.259e-07 -1.03853e-06  7.68122e-07 -7.60578e-08 -9.52383e-07  6.57966e-07 -1.97675e-08 -8.63008e-07  5.375e-07 2.49366e-08 -9.32875e-07  4.98557e-07 -1.31576e-07 -1.04073e-06  -6.15428e-08 8.31936e-07 -9.52573e-07  -3.78913e-08 -8.32708e-08 -7.48141e-07  -3.23898e-08 -2.65443e-08 -5.9427e-07  -1.65423e-08 3.55273e-08 -7.5826e-07  -6.86395e-09 -1.97726e-07 -9.28211e-07  2.06692e-07 6.04725e-07 -8.6297e-07  1.55036e-07 -2.68226e-08 -5.94245e-07  -7.5903e-08 -9.08456e-08 -3.64708e-07  -3.00311e-07 9.77331e-08 -5.97484e-07  -4.09651e-07 -3.05626e-07 -8.65127e-07  9.86866e-08 4.38647e-07 -9.32468e-07  9.05834e-08 4.14029e-08 -7.584e-07  1.05178e-07 -2.24728e-07 -5.97421e-07  1.27135e-07 1.09445e-07 -7.51247e-07  9.34084e-08 -3.00668e-07 -9.51919e-07  -4.29312e-07 3.65903e-07 -1.04025e-06  -5.0824e-07 7.61029e-08 -9.28562e-07  -7.80212e-07 -2.41459e-07 -8.6566e-07  -9.40791e-07 5.87608e-08 -9.52438e-07  -8.9819e-07 -3.03284e-07 -1.03935e-06  
            </DataArray>
            <DataArray type="Float64" Name="Velocity" NumberOfComponents="3" format="ascii">
               1.83089e-06 1.87015e-06 -1.7527e-06  1.77955e-06 -9.88737e-08 -1.65165e-06  1.53743e-06 -2.28654e-07 -1.51291e-06  1.28101e-06 3.46311e-08 -1.60438e-06  1.20589e-06 -1.8693e-07 -1.76575e-06  -6.97503e-08 1.68689e-06 -1.6523e-06  -8.32972e-09 -1.02617e-07 -1.36602e-06  -3.8759e-08 -1.7851e-07 -1.1841e-06  -8.73874e-08 8.00905e-08 -1.40196e-06  -9.22275e-08 -3.09656e-07 -1.5843e-06  3.68634e-07 1.28021e-06 -1.51252e-06  3.04367e-07 -2.91311e-08 -1.18401e-06  -1.31386e-07 -2.42387e-07 -9.08557e-07  -5.84374e-07 2.06065e-07 -1.1922e-06  -8.00866e-07 -4.81152e-07 -1.51476e-06  2.60041e-07 9.61568e-07 -1.60278e-06  2.44338e-07 7.17746e-08 -1.40237e-06  2.14923e-07 -4.30468e-07 -1.1917e-06  2.20662e-07 2.44903e-07 -1.37513e-06  1.53086e-07 -3.98521e-07 -1.64875e-06  -1.01189e-06 8.18169e-07 -1.76416e-06  -1.16257e-06 1.46676e-07 -1.58561e-06  -1.65539e-06 -4.29334e-07 -1.51644e-06  -1.89938e-06 1.59656e-07 -1.65058e-06  -1.78851e-06 -3.57012e-07 -1.75597e-06  
            </DataArray>
            <DataArray type="Float64" Name="Traction" NumberOfComponents="3" format="ascii">
               3.71187e-05 3.65108e-05 -0.000144712  -1.21156e-05 3.27291e-05 -0.000144712  -5.64905e-06 -7.93383e-07 -0.000144712  2.20118e-06 1.69824e-05 -0.000144712  -3.5863e-05 4.12863e-05 -0.000144712  2.61251e-05 -1.27274e-05 -0.000144712  -2.3883e-06 -5.07137e-06 -0.000144712  -2.69432e-07 -5.98562e-06 -0.000144712  4.44602e-06 -1.96178e-06 -0.000144712  -4.45167e-05 5.59322e-06 -0.000144712  2.86422e-05 -2.6476e-06 -0.000144712  -2.88839e-06 -1.79774e-06 -0.000144712  -8.89297e-07 -5.19696e-07 -0.000144712  1.20482e-05 1.44462e-06 -0.000144712  -5.01481e-05 4.19927e-06 -0.000144712  3.24953e-05 4.87134e-06 -0.000144712  -1.25986e-06 6.0902e-06 -0.000144712  2.75637e-06 8.82948e-06 -0.000144712  4.96168e-06 4.55739e-06 -0.000144712  -3.40754e-05 -2.46463e-06 -0.000144712  2.88833e-05 -2.25105e-05 -0.000144712  1.93212e-06 -3.35671e-05 -0.000144712  4.00874e-06 -2.47581e-05 -0.000144712  3.93069e-06 -6.32611e-06 -0.000144712  -5.65376e-06 -1.00712e-05 -0.000144712  
            </DataArray>
         </PointData> 
      </Piece>
   </UnstructuredGrid> 
</VTKFile>
