<?xml version="1.0"?>
<VTKFile type="UnstructuredGrid" version="0.1" byte_order="LittleEndian">
   <UnstructuredGrid>
      <Piece NumberOfPoints="25" NumberOfCells="0" > 
         <Points> 
            <DataArray type="Float64" Name="Position" NumberOfComponents="3" format="ascii"> 
               0  0  20  
               0.75  0  20  
               1.5  0  20  
               2.25  0  20  
               3  0  20  
               0  0.75  20  
               0.75  0.75  20  
               1.5  0.75  20  
               2.25  0.75  20  
               3  0.75  20  
               0  1.5  20  
               0.75  1.5  20  
               1.5  1.5  20  
               2.25  1.5  20  
               3  1.5  20  
               0  2.25  20  
               0.75  2.25  20  
               1.5  2.25  20  
               2.25  2.25  20  
               3  2.25  20  
               0  3  20  
               0.75  3  20  
               1.5  3  20  
               2.25  3  20  
               3  3  20  
            </DataArray>
         </Points> 

         <Cells>
            <DataArray type="Int32" Name="connectivity" NumberOfComponents="1" format="ascii">
               
            </DataArray> 
            <DataArray type="Int32" Name="offsets" NumberOfComponents="1" format="ascii">
               
            </DataArray>
            <DataArray type="UInt8"  Name="types" NumberOfComponents="1" format="ascii">
               
            </DataArray>
         </Cells>
         <PointData Scalars="Rank " Vectors="Displacement Velocity Traction ">
            <DataArray type="UInt32" Name="Rank" NumberOfComponents="1" format="ascii">
               0 0 0 0 0 0 0 0 0 0 0 0 0 0 0 0 0 0 0 0 0 0 0 0 0 
            </DataArray>
            <DataArray type="Float64" Name="Displacement" NumberOfComponents="3" format="ascii">
               2.69506e-05 2.62331e-05 -0.000104517  -8.89448e-07 4.85692e-05 -9.63435e-05  -1.44202e-05 5.92648e-05 -8.75572e-05  -1.06138e-05 4.06566e-05 -9.3551e-05  -3.14404e-05 4.70286e-05 -0.000101921  5.01334e-05 -1.57213e-06 -9.74496e-05  1.50834e-05 1.34871e-05 -7.70933e-05  -1.85343e-06 2.21766e-05 -6.32057e-05  -9.4528e-06 1.16768e-05 -7.8747e-05  -3.80844e-05 2.11675e-05 -9.1626e-05  6.17308e-05 -1.53417e-05 -8.89619e-05  2.44351e-05 -2.66434e-06 -6.32985e-05  3.30046e-06 2.06355e-06 -4.18175e-05  -1.77924e-05 4.07374e-06 -6.37778e-05  -5.53717e-05 1.68511e-05 -8.71405e-05  4.31525e-05 -1.30235e-05 -9.46386e-05  1.3907e-05 -1.05653e-05 -7.85341e-05  5.67878e-06 -1.87501e-05 -6.3622e-05  -9.95151e-06 -1.12758e-05 -7.74829e-05  -4.54888e-05 2.6604e-06 -9.5304e-05  4.87746e-05 -3.45195e-05 -0.000104265  2.29989e-05 -3.98899e-05 -9.23478e-05  1.80332e-05 -5.65998e-05 -8.77641e-05  3.4013e-06 -4.67586e-05 -9.61528e-05  -2.46105e-05 -2.55448e-05 -0.000102457  
            </DataArray>
            <DataArray type="Float64" Name="Velocity" NumberOfComponents="3" format="ascii">
               4.11815e-05 4.25864e-05 -0.000161054  -6.99171e-07 7.21171e-05 -0.000154253  -2.46742e-05 8.37064e-05 -0.000144019  -2.05253e-05 5.91617e-05 -0.000152252  -4.64987e-05 7.5226e-05 -0.000157753  7.199e-05 9.59644e-07 -0.000154929  2.26548e-05 2.28405e-05 -0.00013247  -6.42349e-06 3.52736e-05 -0.000117225  -2.01548e-05 2.1769e-05 -0.000137635  -5.70981e-05 3.78553e-05 -0.000147708  8.46684e-05 -2.33249e-05 -0.000145417  3.58904e-05 -5.31162e-06 -0.000117523  1.21849e-06 1.64382e-06 -9.1206e-05  -3.041e-05 5.72148e-06 -0.0001179  -7.81618e-05 2.36961e-05 -0.000141869  6.11182e-05 -2.14246e-05 -0.000153863  2.29176e-05 -2.00385e-05 -0.000137723  5.93547e-06 -3.07545e-05 -0.000117935  -1.8959e-05 -1.98718e-05 -0.000133521  -6.64497e-05 -9.05607e-07 -0.000151476  7.73366e-05 -4.85713e-05 -0.000161031  3.97675e-05 -5.80312e-05 -0.000148743  2.42515e-05 -7.92736e-05 -0.000143092  -1.31593e-06 -6.81853e-05 -0.000152853  -4.11868e-05 -4.10584e-05 -0.000156774  
            </DataArray>
            <DataArray type="Float64" Name="Traction" NumberOfComponents="3" format="ascii">
               0 0 0  0 0 0  0 0 0  0 0 0  0 0 0  0 0 0  0 0 0  0 0 0  0 0 0  0 0 0  0 0 0  0 0 0  0 0 0  0 0 0  0 0 0  0 0 0  0 0 0  0 0 0  0 0 0  0 0 0  0 0 0  0 0 0  0 0 0  0 0 0  0 0 0  
            </DataArray>
         </PointData> 
      </Piece>
   </UnstructuredGrid> 
</VTKFile>
