<?xml version="1.0"?>
<VTKFile type="UnstructuredGrid" version="0.1" byte_order="LittleEndian">
   <UnstructuredGrid>
      <Piece NumberOfPoints="25" NumberOfCells="0" > 
         <Points> 
            <DataArray type="Float64" Name="Position" NumberOfComponents="3" format="ascii"> 
               0  0  20  
               0.75  0  20  
               1.5  0  20  
               2.25  0  20  
               3  0  20  
               0  0.75  20  
               0.75  0.75  20  
               1.5  0.75  20  
               2.25  0.75  20  
               3  0.75  20  
               0  1.5  20  
               0.75  1.5  20  
               1.5  1.5  20  
               2.25  1.5  20  
               3  1.5  20  
               0  2.25  20  
               0.75  2.25  20  
               1.5  2.25  20  
               2.25  2.25  20  
               3  2.25  20  
               0  3  20  
               0.75  3  20  
               1.5  3  20  
               2.25  3  20  
               3  3  20  
            </DataArray>
         </Points> 

         <Cells>
            <DataArray type="Int32" Name="connectivity" NumberOfComponents="1" format="ascii">
               
            </DataArray> 
            <DataArray type="Int32" Name="offsets" NumberOfComponents="1" format="ascii">
               
            </DataArray>
            <DataArray type="UInt8"  Name="types" NumberOfComponents="1" format="ascii">
               
            </DataArray>
         </Cells>
         <PointData Scalars="Rank " Vectors="Displacement Velocity Traction ">
            <DataArray type="UInt32" Name="Rank" NumberOfComponents="1" format="ascii">
               0 0 0 0 0 0 0 0 0 0 0 0 0 0 0 0 0 0 0 0 0 0 0 0 0 
            </DataArray>
            <DataArray type="Float64" Name="Displacement" NumberOfComponents="3" format="ascii">
               3.04481e-07 3.03452e-07 -1.20155e-06  -1.54015e-08 5.58751e-07 -1.1074e-06  -1.50098e-07 6.97314e-07 -1.00519e-06  -1.3254e-07 4.8095e-07 -1.08325e-06  -3.85392e-07 5.26627e-07 -1.20592e-06  5.59975e-07 -1.49517e-08 -1.10766e-06  1.45944e-07 1.4647e-07 -8.7681e-07  -3.25435e-08 2.49294e-07 -7.06668e-07  -1.2649e-07 1.28039e-07 -8.90721e-07  -4.74023e-07 2.23529e-07 -1.07642e-06  6.95826e-07 -1.49231e-07 -1.00501e-06  2.49195e-07 -3.10404e-08 -7.0666e-07  1.83993e-08 1.80682e-08 -4.51955e-07  -2.20124e-07 3.23393e-08 -7.10712e-07  -6.75256e-07 1.54296e-07 -1.00728e-06  4.78827e-07 -1.32529e-07 -1.08266e-06  1.27565e-07 -1.27158e-07 -8.90902e-07  3.35996e-08 -2.20851e-07 -7.10569e-07  -1.3566e-07 -1.36057e-07 -8.80842e-07  -5.4918e-07 3.82183e-09 -1.10659e-06  5.26337e-07 -3.86267e-07 -1.20532e-06  2.23527e-07 -4.74643e-07 -1.07693e-06  1.56574e-07 -6.77732e-07 -1.00802e-06  3.63904e-09 -5.54992e-07 -1.10731e-06  -3.09592e-07 -3.12936e-07 -1.20289e-06  
            </DataArray>
            <DataArray type="Float64" Name="Velocity" NumberOfComponents="3" format="ascii">
               4.56028e-07 4.55062e-07 -1.89852e-06  -3.96413e-08 8.499e-07 -1.80626e-06  -3.42109e-07 9.99415e-07 -1.66236e-06  -2.85943e-07 6.9215e-07 -1.75454e-06  -5.99059e-07 9.1031e-07 -1.91477e-06  8.51665e-07 -3.84701e-08 -1.80703e-06  2.6331e-07 2.6475e-07 -1.51534e-06  -7.14653e-08 4.28252e-07 -1.33644e-06  -2.3378e-07 2.47592e-07 -1.56052e-06  -6.73842e-07 4.72846e-07 -1.7277e-06  9.94775e-07 -3.39306e-07 -1.66152e-06  4.2777e-07 -6.67599e-08 -1.33638e-06  2.3857e-08 2.29905e-08 -1.05909e-06  -3.75749e-07 6.83453e-08 -1.34589e-06  -9.52061e-07 3.4198e-07 -1.66278e-06  6.85521e-07 -2.85987e-07 -1.75234e-06  2.46006e-07 -2.35703e-07 -1.56101e-06  7.19625e-08 -3.78249e-07 -1.3451e-06  -2.40683e-07 -2.42812e-07 -1.52644e-06  -8.22841e-07 1.94693e-08 -1.80216e-06  9.08237e-07 -6.01266e-07 -1.91291e-06  4.73004e-07 -6.75941e-07 -1.7295e-06  3.4818e-07 -9.59706e-07 -1.66497e-06  1.96964e-08 -8.39282e-07 -1.8046e-06  -4.70468e-07 -4.7885e-07 -1.90235e-06  
            </DataArray>
            <DataArray type="Float64" Name="Traction" NumberOfComponents="3" format="ascii">
               0 0 0  0 0 0  0 0 0  0 0 0  0 0 0  0 0 0  0 0 0  0 0 0  0 0 0  0 0 0  0 0 0  0 0 0  0 0 0  0 0 0  0 0 0  0 0 0  0 0 0  0 0 0  0 0 0  0 0 0  0 0 0  0 0 0  0 0 0  0 0 0  0 0 0  
            </DataArray>
         </PointData> 
      </Piece>
   </UnstructuredGrid> 
</VTKFile>
