<?xml version="1.0"?>
<VTKFile type="UnstructuredGrid" version="0.1" byte_order="LittleEndian">
   <UnstructuredGrid>
      <Piece NumberOfPoints="25" NumberOfCells="0" > 
         <Points> 
            <DataArray type="Float64" Name="Position" NumberOfComponents="3" format="ascii"> 
               0  0  20  
               0.75  0  20  
               1.5  0  20  
               2.25  0  20  
               3  0  20  
               0  0.75  20  
               0.75  0.75  20  
               1.5  0.75  20  
               2.25  0.75  20  
               3  0.75  20  
               0  1.5  20  
               0.75  1.5  20  
               1.5  1.5  20  
               2.25  1.5  20  
               3  1.5  20  
               0  2.25  20  
               0.75  2.25  20  
               1.5  2.25  20  
               2.25  2.25  20  
               3  2.25  20  
               0  3  20  
               0.75  3  20  
               1.5  3  20  
               2.25  3  20  
               3  3  20  
            </DataArray>
         </Points> 

         <Cells>
            <DataArray type="Int32" Name="connectivity" NumberOfComponents="1" format="ascii">
               
            </DataArray> 
            <DataArray type="Int32" Name="offsets" NumberOfComponents="1" format="ascii">
               
            </DataArray>
            <DataArray type="UInt8"  Name="types" NumberOfComponents="1" format="ascii">
               
            </DataArray>
         </Cells>
         <PointData Scalars="Rank " Vectors="Displacement Velocity Traction ">
            <DataArray type="UInt32" Name="Rank" NumberOfComponents="1" format="ascii">
               0 0 0 0 0 0 0 0 0 0 0 0 0 0 0 0 0 0 0 0 0 0 0 0 0 
            </DataArray>
            <DataArray type="Float64" Name="Displacement" NumberOfComponents="3" format="ascii">
               -1.04371e-06 -1.62018e-06 -3.44409e-06  1.69168e-07 -4.96188e-07 -2.60906e-06  1.46001e-06 1.69391e-06 -1.83409e-06  2.02365e-06 3.52189e-07 -2.32199e-06  1.18306e-06 -1.86415e-06 -3.45333e-06  -7.76999e-08 -4.97737e-07 -2.72425e-06  -5.39578e-07 -1.03604e-06 -1.20376e-06  6.13444e-07 -6.34761e-07 5.77958e-07  1.52556e-06 -1.33203e-06 -5.64808e-07  -1.2101e-07 -1.89133e-06 -2.88089e-06  2.0871e-06 8.72078e-07 -1.79677e-06  -1.91796e-07 1.53881e-07 6.38692e-07  6.04635e-07 2.75419e-07 2.46199e-06  6.40332e-07 1.89631e-07 5.1199e-07  -2.0763e-06 -1.71998e-07 -2.42824e-06  4.42431e-07 1.54563e-06 -2.15655e-06  -1.1087e-06 1.28776e-06 -5.15369e-07  3.93978e-07 7.33967e-07 5.53906e-07  8.96038e-07 1.11424e-06 -1.06759e-06  -4.68746e-07 8.68105e-07 -3.20185e-06  -2.22011e-06 7.95605e-07 -3.18579e-06  -2.19039e-06 -2.20252e-07 -2.79891e-06  -2.72567e-07 -1.77089e-06 -2.14138e-06  8.31908e-07 2.95147e-08 -2.86943e-06  1.13433e-06 1.23546e-06 -4.26656e-06  
            </DataArray>
            <DataArray type="Float64" Name="Velocity" NumberOfComponents="3" format="ascii">
               6.1254e-06 5.38511e-06 -2.0625e-05  -8.8106e-07 1.17055e-05 -1.71313e-05  -3.25074e-06 1.50109e-05 -1.43205e-05  -2.05769e-06 9.95519e-06 -1.57139e-05  -8.42016e-06 1.0162e-05 -2.00863e-05  1.27429e-05 -1.6938e-06 -1.76117e-05  3.45985e-06 2.46866e-06 -1.06074e-05  4.49858e-07 4.71108e-06 -6.10471e-06  -8.89108e-07 1.75449e-06 -1.01433e-05  -9.13606e-06 3.65755e-06 -1.57694e-05  1.62111e-05 -4.18678e-06 -1.47749e-05  5.84781e-06 -3.43914e-07 -6.07777e-06  1.68361e-06 8.27581e-07 1.53813e-07  -3.23873e-06 1.00527e-06 -6.24548e-06  -1.40756e-05 4.7017e-06 -1.46272e-05  1.08795e-05 -3.12468e-06 -1.59252e-05  2.74464e-06 -1.558e-06 -1.00052e-05  1.90945e-06 -3.77341e-06 -6.13074e-06  -1.36284e-06 -1.99139e-06 -1.05686e-05  -1.12557e-05 2.12758e-06 -1.72168e-05  1.0696e-05 -9.51902e-06 -2.0525e-05  4.3069e-06 -9.92401e-06 -1.5891e-05  5.33741e-06 -1.45775e-05 -1.46537e-05  2.81122e-06 -1.16356e-05 -1.73694e-05  -4.66945e-06 -5.40176e-06 -2.04702e-05  
            </DataArray>
            <DataArray type="Float64" Name="Traction" NumberOfComponents="3" format="ascii">
               -1.33294e-05 -1.28714e-05 -0.000179749  -1.89219e-05 -1.11831e-06 -0.000179749  -1.54223e-05 -2.63285e-05 -0.000179749  -8.43738e-06 -1.70149e-05 -0.000179749  1.49633e-06 1.51105e-05 -0.000179749  3.97934e-06 -1.9665e-05 -0.000179749  4.44504e-06 -1.34078e-06 -0.000179749  8.8199e-06 -1.09639e-05 -0.000179749  8.74338e-06 -3.12081e-06 -0.000179749  2.26125e-05 1.75144e-05 -0.000179749  -2.18378e-05 -1.85747e-05 -0.000179749  -6.54814e-06 3.91672e-06 -0.000179749  1.09782e-05 7.3971e-06 -0.000179749  1.86623e-05 6.85364e-06 -0.000179749  3.82405e-05 1.80438e-05 -0.000179749  -6.69481e-06 -1.3133e-05 -0.000179749  4.30999e-06 5.12148e-06 -0.000179749  9.82663e-06 1.31343e-05 -0.000179749  9.19921e-06 5.4138e-06 -0.000179749  1.93076e-05 1.48728e-05 -0.000179749  2.51446e-05 -3.80671e-06 -0.000179749  2.44206e-05 2.01296e-05 -0.000179749  2.03581e-05 3.26724e-05 -0.000179749  1.64495e-05 1.39682e-05 -0.000179749  1.61805e-05 1.26737e-05 -0.000179749  
            </DataArray>
         </PointData> 
      </Piece>
   </UnstructuredGrid> 
</VTKFile>
