<?xml version="1.0"?>
<VTKFile type="UnstructuredGrid" version="0.1" byte_order="LittleEndian">
   <UnstructuredGrid>
      <Piece NumberOfPoints="25" NumberOfCells="0" > 
         <Points> 
            <DataArray type="Float64" Name="Position" NumberOfComponents="3" format="ascii"> 
               0  0  15  
               0.75  0  15  
               1.5  0  15  
               2.25  0  15  
               3  0  15  
               0  0.75  15  
               0.75  0.75  15  
               1.5  0.75  15  
               2.25  0.75  15  
               3  0.75  15  
               0  1.5  15  
               0.75  1.5  15  
               1.5  1.5  15  
               2.25  1.5  15  
               3  1.5  15  
               0  2.25  15  
               0.75  2.25  15  
               1.5  2.25  15  
               2.25  2.25  15  
               3  2.25  15  
               0  3  15  
               0.75  3  15  
               1.5  3  15  
               2.25  3  15  
               3  3  15  
            </DataArray>
         </Points> 

         <Cells>
            <DataArray type="Int32" Name="connectivity" NumberOfComponents="1" format="ascii">
               
            </DataArray> 
            <DataArray type="Int32" Name="offsets" NumberOfComponents="1" format="ascii">
               
            </DataArray>
            <DataArray type="UInt8"  Name="types" NumberOfComponents="1" format="ascii">
               
            </DataArray>
         </Cells>
         <PointData Scalars="Rank " Vectors="Displacement Velocity Traction ">
            <DataArray type="UInt32" Name="Rank" NumberOfComponents="1" format="ascii">
               0 0 0 0 0 0 0 0 0 0 0 0 0 0 0 0 0 0 0 0 0 0 0 0 0 
            </DataArray>
            <DataArray type="Float64" Name="Displacement" NumberOfComponents="3" format="ascii">
               0.000485887 0.000385769 -0.000133216  0.000467422 7.89345e-05 -0.00012379  0.000392408 1.45406e-05 -0.000113294  0.00030478 -1.71945e-05 -0.000120744  0.000273546 -0.000202054 -0.000129834  0.000120606 0.000369365 -0.000125006  0.000123851 8.09654e-05 -0.000100933  9.38127e-05 3.12994e-05 -8.44519e-05  6.85281e-05 -2.07326e-05 -0.000103516  7.77129e-05 -0.000231161 -0.000118013  3.07179e-05 0.00030186 -0.000114918  5.08585e-05 3.98369e-05 -8.46019e-05  1.34471e-05 -2.05249e-05 -5.86149e-05  -1.57204e-05 -7.8396e-05 -8.51417e-05  9.47903e-06 -0.000308669 -0.000112498  -2.01408e-05 0.00022067 -0.000122092  -1.41662e-05 -3.39785e-06 -0.000103328  -4.61676e-05 -6.76242e-05 -8.49883e-05  -7.48221e-05 -0.000132816 -0.000101497  -7.0776e-05 -0.000367743 -0.000122282  -0.000177577 0.000191327 -0.000132724  -0.000199597 -7.88864e-06 -0.000118919  -0.000256452 -6.16004e-05 -0.000113331  -0.000293135 -0.000144402 -0.000123374  -0.000296292 -0.000379206 -0.000130404  
            </DataArray>
            <DataArray type="Float64" Name="Velocity" NumberOfComponents="3" format="ascii">
               0.000270014 0.000290565 -0.00019339  0.000253104 3.96651e-05 -0.000186661  0.000189726 -3.56681e-05 -0.000175151  0.000115238 -4.77003e-05 -0.000184852  8.67495e-05 -0.00020122 -0.000190022  7.02131e-06 0.000272845 -0.000187107  7.00478e-06 3.878e-05 -0.000162456  -3.54658e-05 -1.20154e-05 -0.000145196  -7.65064e-05 -4.44715e-05 -0.000168871  -7.38338e-05 -0.000228383 -0.000179464  -6.9812e-05 0.000211234 -0.000176392  -4.68965e-05 -5.80202e-06 -0.000145547  -7.60705e-05 -4.2839e-05 -0.000115373  -0.000102514 -9.05169e-05 -0.000145938  -7.83056e-05 -0.000298668 -0.00017264  -8.16332e-05 0.000138835 -0.000186471  -7.84721e-05 -4.79658e-05 -0.000169085  -0.000122207 -7.12454e-05 -0.000146032  -0.000165421 -0.000138372 -0.000163698  -0.000164778 -0.000358107 -0.000183532  -0.000229398 0.000110941 -0.000193253  -0.000255238 -4.59933e-05 -0.000180484  -0.000321534 -4.94869e-05 -0.000173825  -0.000375459 -0.000141834 -0.000184802  -0.000389077 -0.000375212 -0.000188722  
            </DataArray>
            <DataArray type="Float64" Name="Traction" NumberOfComponents="3" format="ascii">
               0.00722859 0.00738786 -0.016282  8.98159e-05 0.00842758 -0.016282  -0.00153619 0.00882463 -0.016282  -0.0030743 0.00927594 -0.016282  -0.0104106 0.00961481 -0.016282  0.00912094 0.000407139 -0.016282  0.00170861 0.0024258 -0.016282  -0.000342173 0.00305956 -0.016282  -0.00226326 0.00241541 -0.016282  -0.00876685 0.00283481 -0.016282  0.00911462 -0.00157273 -0.016282  0.0017111 -2.69088e-05 -0.016282  -0.000616427 -0.000243386 -0.016282  -0.00307828 -0.00056272 -0.016282  -0.00950315 0.000640904 -0.016282  0.00910627 -0.00315801 -0.016282  0.00129805 -0.00251524 -0.016282  -0.000883896 -0.00365596 -0.016282  -0.00320454 -0.00381949 -0.016282  -0.00685918 -0.00313126 -0.016282  0.0095363 -0.0111324 -0.016282  0.0018819 -0.00880874 -0.016282  0.00057309 -0.00921276 -0.016282  -0.00253637 -0.00757308 -0.016282  -0.00338656 -0.0039474 -0.016282  
            </DataArray>
         </PointData> 
      </Piece>
   </UnstructuredGrid> 
</VTKFile>
