<?xml version="1.0"?>
<VTKFile type="UnstructuredGrid" version="0.1" byte_order="LittleEndian">
   <UnstructuredGrid>
      <Piece NumberOfPoints="25" NumberOfCells="0" > 
         <Points> 
            <DataArray type="Float64" Name="Position" NumberOfComponents="3" format="ascii"> 
               0  0  20  
               0.75  0  20  
               1.5  0  20  
               2.25  0  20  
               3  0  20  
               0  0.75  20  
               0.75  0.75  20  
               1.5  0.75  20  
               2.25  0.75  20  
               3  0.75  20  
               0  1.5  20  
               0.75  1.5  20  
               1.5  1.5  20  
               2.25  1.5  20  
               3  1.5  20  
               0  2.25  20  
               0.75  2.25  20  
               1.5  2.25  20  
               2.25  2.25  20  
               3  2.25  20  
               0  3  20  
               0.75  3  20  
               1.5  3  20  
               2.25  3  20  
               3  3  20  
            </DataArray>
         </Points> 

         <Cells>
            <DataArray type="Int32" Name="connectivity" NumberOfComponents="1" format="ascii">
               
            </DataArray> 
            <DataArray type="Int32" Name="offsets" NumberOfComponents="1" format="ascii">
               
            </DataArray>
            <DataArray type="UInt8"  Name="types" NumberOfComponents="1" format="ascii">
               
            </DataArray>
         </Cells>
         <PointData Scalars="Rank " Vectors="Displacement Velocity Traction ">
            <DataArray type="UInt32" Name="Rank" NumberOfComponents="1" format="ascii">
               0 0 0 0 0 0 0 0 0 0 0 0 0 0 0 0 0 0 0 0 0 0 0 0 0 
            </DataArray>
            <DataArray type="Float64" Name="Displacement" NumberOfComponents="3" format="ascii">
               0.000207604 0.000215016 -0.000931232  1.04853e-06 0.000368036 -0.000921998  -0.000129738 0.000434405 -0.000879724  -0.000115663 0.000310941 -0.000921261  -0.000241071 0.000401434 -0.000933791  0.000360566 7.80966e-06 -0.000919118  0.000110586 0.000116961 -0.000831359  -4.43566e-05 0.000185673 -0.000762796  -0.00012118 0.000121221 -0.000863529  -0.000307986 0.000210143 -0.000900025  0.000428623 -0.000122407 -0.000878479  0.000180393 -3.80963e-05 -0.000763622  -4.72084e-06 7.7785e-07 -0.000638277  -0.000175348 2.98558e-05 -0.000766271  -0.000420267 0.000119837 -0.000874884  0.000307627 -0.000109038 -0.000921715  0.000117323 -0.000115141 -0.000864911  2.51046e-05 -0.000170149 -0.000766776  -0.000111925 -0.000107183 -0.000838093  -0.000356871 -1.71717e-05 -0.000916935  0.000398295 -0.000235956 -0.000932958  0.000206532 -0.000302048 -0.000899563  0.00011588 -0.000415058 -0.000873795  -2.25902e-05 -0.000352797 -0.000914997  -0.000225039 -0.000218822 -0.000923275  
            </DataArray>
            <DataArray type="Float64" Name="Velocity" NumberOfComponents="3" format="ascii">
               0.000195856 0.000200546 -0.000936877  8.71511e-06 0.000338664 -0.000947845  -0.000118877 0.000398656 -0.000919492  -0.000115073 0.000291458 -0.000955915  -0.000225633 0.000381368 -0.000952376  0.000328305 1.20581e-05 -0.000941478  0.000101941 0.00011024 -0.000883838  -4.61763e-05 0.000174344 -0.000832539  -0.000124313 0.000120773 -0.000919882  -0.000290981 0.000206155 -0.000936848  0.000387354 -0.000113183 -0.000913038  0.000165117 -4.15765e-05 -0.00083265  -1.0428e-05 -5.0005e-06 -0.00072865  -0.000173869 2.68811e-05 -0.000836199  -0.000393795 0.00010819 -0.000919  0.000280572 -0.000102637 -0.000951044  0.000112098 -0.000116637 -0.000921164  2.08425e-05 -0.00016623 -0.000836657  -0.000113552 -0.000105123 -0.000891907  -0.000338093 -2.73888e-05 -0.000949234  0.000370343 -0.00021115 -0.00093976  0.000195604 -0.000279818 -0.000932286  0.000102349 -0.000383586 -0.000913489  -3.1511e-05 -0.000327667 -0.000942655  -0.000218142 -0.000212183 -0.000937461  
            </DataArray>
            <DataArray type="Float64" Name="Traction" NumberOfComponents="3" format="ascii">
               -0.00146675 -0.00144992 -0.0108361  -0.000462686 -0.00260069 -0.0108361  0.000727326 -0.00301627 -0.0108361  0.000564487 -0.0019647 -0.0108361  0.00115161 -0.00228832 -0.0108361  -0.00260489 -0.000419382 -0.0108361  -0.00110522 -0.00107651 -0.0108361  0.000844486 -0.00167681 -0.0108361  0.000973354 -0.00110327 -0.0108361  0.00169971 -0.00115577 -0.0108361  -0.00303595 0.000783774 -0.0108361  -0.00171283 0.000889209 -0.0108361  0.000636877 0.000682969 -0.0108361  0.00151147 0.00017101 -0.0108361  0.0027785 -0.000165249 -0.0108361  -0.001994 0.000607467 -0.0108361  -0.00113942 0.00100976 -0.0108361  0.000127099 0.00154929 -0.0108361  0.000954893 0.000990824 -0.0108361  0.0023712 0.000444861 -0.0108361  -0.00232059 0.00118763 -0.0108361  -0.00119153 0.00172643 -0.0108361  -0.000213122 0.00280794 -0.0108361  0.000415108 0.00240173 -0.0108361  0.00138614 0.00139912 -0.0108361  
            </DataArray>
         </PointData> 
      </Piece>
   </UnstructuredGrid> 
</VTKFile>
