<?xml version="1.0"?>
<VTKFile type="UnstructuredGrid" version="0.1" byte_order="LittleEndian">
   <UnstructuredGrid>
      <Piece NumberOfPoints="25" NumberOfCells="0" > 
         <Points> 
            <DataArray type="Float64" Name="Position" NumberOfComponents="3" format="ascii"> 
               0  0  20  
               0.75  0  20  
               1.5  0  20  
               2.25  0  20  
               3  0  20  
               0  0.75  20  
               0.75  0.75  20  
               1.5  0.75  20  
               2.25  0.75  20  
               3  0.75  20  
               0  1.5  20  
               0.75  1.5  20  
               1.5  1.5  20  
               2.25  1.5  20  
               3  1.5  20  
               0  2.25  20  
               0.75  2.25  20  
               1.5  2.25  20  
               2.25  2.25  20  
               3  2.25  20  
               0  3  20  
               0.75  3  20  
               1.5  3  20  
               2.25  3  20  
               3  3  20  
            </DataArray>
         </Points> 

         <Cells>
            <DataArray type="Int32" Name="connectivity" NumberOfComponents="1" format="ascii">
               
            </DataArray> 
            <DataArray type="Int32" Name="offsets" NumberOfComponents="1" format="ascii">
               
            </DataArray>
            <DataArray type="UInt8"  Name="types" NumberOfComponents="1" format="ascii">
               
            </DataArray>
         </Cells>
         <PointData Scalars="Rank " Vectors="Displacement Velocity Traction ">
            <DataArray type="UInt32" Name="Rank" NumberOfComponents="1" format="ascii">
               0 0 0 0 0 0 0 0 0 0 0 0 0 0 0 0 0 0 0 0 0 0 0 0 0 
            </DataArray>
            <DataArray type="Float64" Name="Displacement" NumberOfComponents="3" format="ascii">
               -8.07468e-07 -7.06612e-07 -8.5272e-07  6.43787e-07 -1.71827e-06 -1.9777e-06  6.97334e-07 -2.07564e-06 -2.68204e-06  5.57659e-07 -1.23307e-06 -2.54179e-06  1.73937e-06 -1.0688e-06 -9.09653e-07  -1.99294e-06 7.03564e-07 -1.88026e-06  -3.16875e-07 -1.83307e-07 -3.59105e-06  -2.76324e-07 -4.94352e-07 -4.48868e-06  -9.43964e-08 4.38798e-08 -3.97916e-06  1.40492e-06 -1.52638e-07 -2.32413e-06  -2.27816e-06 8.24003e-07 -2.58828e-06  -6.10218e-07 -1.76249e-07 -4.4993e-06  -3.19825e-07 -2.32701e-07 -5.52388e-06  1.46434e-07 1.79807e-08 -4.52321e-06  1.95493e-06 -6.92255e-07 -2.62434e-06  -1.39112e-06 6.1201e-07 -2.45212e-06  -8.14647e-08 -2.35624e-08 -3.9883e-06  -7.18009e-08 2.61572e-07 -4.53853e-06  1.37045e-08 1.69827e-07 -3.63793e-06  1.57279e-06 -6.34521e-07 -2.01435e-06  -1.28827e-06 1.75207e-06 -8.27861e-07  -3.52459e-07 1.471e-06 -2.33583e-06  -8.4155e-07 2.05958e-06 -2.61534e-06  -8.48468e-07 1.71603e-06 -1.94578e-06  4.20382e-07 6.6411e-07 -9.38563e-07  
            </DataArray>
            <DataArray type="Float64" Name="Velocity" NumberOfComponents="3" format="ascii">
               -2.42192e-06 -2.4912e-06 5.30533e-06  3.76837e-07 -3.89804e-06 4.86663e-06  2.01706e-06 -3.75027e-06 4.50965e-06  1.91962e-06 -2.95619e-06 4.61349e-06  3.31879e-06 -4.44415e-06 5.18789e-06  -3.98944e-06 3.15807e-07 4.9442e-06  -1.39854e-06 -1.35115e-06 3.80276e-06  3.04457e-07 -1.90915e-06 3.5293e-06  1.2511e-06 -1.4357e-06 4.05129e-06  2.79189e-06 -2.45879e-06 4.29403e-06  -3.86148e-06 2.02844e-06 4.61499e-06  -1.99858e-06 3.19256e-07 3.54132e-06  -1.49248e-07 -5.36338e-08 2.80072e-06  1.51069e-06 -2.99915e-07 3.55152e-06  3.27573e-06 -1.79831e-06 4.31868e-06  -3.09379e-06 1.96533e-06 4.69863e-06  -1.56459e-06 1.32611e-06 4.03908e-06  -4.62449e-07 1.70858e-06 3.52629e-06  9.98583e-07 1.27491e-06 3.87667e-06  3.34008e-06 -2.20346e-07 4.64483e-06  -4.68563e-06 3.391e-06 5.34789e-06  -2.74061e-06 2.95339e-06 4.35675e-06  -2.0396e-06 3.5741e-06 4.43411e-06  -4.45455e-07 3.69671e-06 4.82436e-06  2.12254e-06 2.39874e-06 4.94297e-06  
            </DataArray>
            <DataArray type="Float64" Name="Traction" NumberOfComponents="3" format="ascii">
               5.05451e-06 5.68048e-06 4.71263e-05  -5.17576e-06 1.95463e-05 4.71263e-05  -5.48223e-06 2.16399e-05 4.71263e-05  -1.03976e-05 1.59373e-05 4.71263e-05  -2.41596e-05 1.81749e-05 4.71263e-05  2.172e-05 -3.56904e-06 4.71263e-05  7.89614e-06 7.08343e-06 4.71263e-05  1.27979e-06 8.80871e-06 4.71263e-05  -5.59293e-06 4.55554e-06 4.71263e-05  -1.99521e-05 7.81191e-06 4.71263e-05  2.17281e-05 -4.70323e-06 4.71263e-05  8.23404e-06 8.81705e-07 4.71263e-05  -1.87638e-06 -1.0717e-06 4.71263e-05  -7.50549e-06 -1.97922e-06 4.71263e-05  -2.16697e-05 5.44874e-06 4.71263e-05  1.65387e-05 -1.00286e-05 4.71263e-05  4.33925e-06 -5.49201e-06 4.71263e-05  -3.58424e-06 -7.24746e-06 4.71263e-05  -8.01919e-06 -6.60596e-06 4.71263e-05  -2.02754e-05 2.18781e-06 4.71263e-05  1.9247e-05 -2.36545e-05 4.71263e-05  7.90523e-06 -1.93672e-05 4.71263e-05  4.02765e-06 -2.12567e-05 4.71263e-05  1.35438e-06 -1.87978e-05 4.71263e-05  -8.56788e-06 -8.31375e-06 4.71263e-05  
            </DataArray>
         </PointData> 
      </Piece>
   </UnstructuredGrid> 
</VTKFile>
