<?xml version="1.0"?>
<VTKFile type="UnstructuredGrid" version="0.1" byte_order="LittleEndian">
   <UnstructuredGrid>
      <Piece NumberOfPoints="25" NumberOfCells="0" > 
         <Points> 
            <DataArray type="Float64" Name="Position" NumberOfComponents="3" format="ascii"> 
               0  0  15  
               0.75  0  15  
               1.5  0  15  
               2.25  0  15  
               3  0  15  
               0  0.75  15  
               0.75  0.75  15  
               1.5  0.75  15  
               2.25  0.75  15  
               3  0.75  15  
               0  1.5  15  
               0.75  1.5  15  
               1.5  1.5  15  
               2.25  1.5  15  
               3  1.5  15  
               0  2.25  15  
               0.75  2.25  15  
               1.5  2.25  15  
               2.25  2.25  15  
               3  2.25  15  
               0  3  15  
               0.75  3  15  
               1.5  3  15  
               2.25  3  15  
               3  3  15  
            </DataArray>
         </Points> 

         <Cells>
            <DataArray type="Int32" Name="connectivity" NumberOfComponents="1" format="ascii">
               
            </DataArray> 
            <DataArray type="Int32" Name="offsets" NumberOfComponents="1" format="ascii">
               
            </DataArray>
            <DataArray type="UInt8"  Name="types" NumberOfComponents="1" format="ascii">
               
            </DataArray>
         </Cells>
         <PointData Scalars="Rank " Vectors="Displacement Velocity Traction ">
            <DataArray type="UInt32" Name="Rank" NumberOfComponents="1" format="ascii">
               0 0 0 0 0 0 0 0 0 0 0 0 0 0 0 0 0 0 0 0 0 0 0 0 0 
            </DataArray>
            <DataArray type="Float64" Name="Displacement" NumberOfComponents="3" format="ascii">
               1.68182e-06 1.72803e-06 -1.75046e-06  1.62889e-06 -1.08167e-07 -1.63607e-06  1.39973e-06 -1.57338e-07 -1.49647e-06  1.15553e-06 4.12956e-08 -1.59811e-06  1.08279e-06 -1.82381e-07 -1.75749e-06  -7.1741e-08 1.55634e-06 -1.63657e-06  -2.04968e-08 -1.13861e-07 -1.33219e-06  -3.69874e-08 -1.28695e-07 -1.11926e-06  -5.99364e-08 7.67184e-08 -1.36176e-06  -5.78397e-08 -3.03008e-07 -1.58106e-06  3.70457e-07 1.16722e-06 -1.49611e-06  2.93617e-07 -3.20173e-08 -1.11919e-06  -1.26906e-07 -2.13183e-07 -7.95158e-07  -5.5839e-07 1.95103e-07 -1.12621e-06  -7.66512e-07 -4.83294e-07 -1.49816e-06  2.33393e-07 8.69909e-07 -1.5967e-06  2.1634e-07 7.30965e-08 -1.3621e-06  2.06776e-07 -4.18398e-07 -1.12578e-06  2.23527e-07 2.28655e-07 -1.33998e-06  1.57742e-07 -4.28248e-07 -1.63369e-06  -9.00887e-07 7.36033e-07 -1.75616e-06  -1.04323e-06 1.39936e-07 -1.58223e-06  -1.51786e-06 -4.33346e-07 -1.49962e-06  -1.76018e-06 1.40878e-07 -1.6353e-06  -1.6586e-06 -4.00544e-07 -1.75207e-06  
            </DataArray>
            <DataArray type="Float64" Name="Velocity" NumberOfComponents="3" format="ascii">
               3.25687e-06 2.66581e-06 -2.27181e-06  3.1878e-06 -8.18432e-08 -2.21954e-06  2.74363e-06 -5.68146e-07 -2.08078e-06  2.28623e-06 6.62081e-08 -2.16683e-06  2.16823e-06 -7.4533e-08 -2.28302e-06  3.27271e-08 2.41024e-06 -2.22065e-06  1.27213e-07 -6.65842e-08 -1.95348e-06  2.89578e-08 -4.10891e-07 -1.80909e-06  -1.51198e-07 1.63526e-07 -2.03001e-06  -1.91518e-07 -2.6418e-07 -2.1139e-06  5.77487e-07 1.91118e-06 -2.0792e-06  4.93952e-07 4.38181e-09 -1.80892e-06  -1.53696e-07 -4.62876e-07 -1.55832e-06  -8.88435e-07 3.56401e-07 -1.82221e-06  -1.23806e-06 -5.07429e-07 -2.07524e-06  5.25862e-07 1.49393e-06 -2.16247e-06  4.87772e-07 1.10907e-07 -2.0307e-06  3.75889e-07 -6.80928e-07 -1.82049e-06  3.39185e-07 4.43717e-07 -1.97139e-06  2.22574e-07 -2.9731e-07 -2.21123e-06  -1.67989e-06 1.29229e-06 -2.27971e-06  -1.88704e-06 2.16919e-07 -2.11752e-06  -2.5371e-06 -6.76967e-07 -2.07906e-06  -2.7372e-06 3.15117e-07 -2.2158e-06  -2.50307e-06 -1.5715e-07 -2.27134e-06  
            </DataArray>
            <DataArray type="Float64" Name="Traction" NumberOfComponents="3" format="ascii">
               6.44613e-05 6.28807e-05 -0.000166549  -2.25814e-05 5.06574e-05 -0.000166549  -1.14262e-05 -2.99118e-06 -0.000166549  4.37839e-06 2.94483e-05 -0.000166549  -6.47608e-05 7.47312e-05 -0.000166549  4.91293e-05 -2.15038e-05 -0.000166549  -1.51754e-06 -6.96309e-06 -0.000166549  -4.7598e-07 -7.40245e-06 -0.000166549  5.62859e-06 -1.97245e-06 -0.000166549  -7.88645e-05 9.61481e-06 -0.000166549  5.13095e-05 -5.564e-06 -0.000166549  -7.40233e-07 -3.26182e-06 -0.000166549  -9.28703e-07 -9.22681e-07 -0.000166549  1.70634e-05 2.42083e-06 -0.000166549  -8.79081e-05 6.96264e-06 -0.000166549  5.92619e-05 8.16407e-06 -0.000166549  4.13063e-07 8.64152e-06 -0.000166549  4.74169e-06 1.2002e-05 -0.000166549  7.43171e-06 7.28189e-06 -0.000166549  -5.35466e-05 -4.32723e-06 -0.000166549  5.84741e-05 -4.63637e-05 -0.000166549  4.15948e-06 -5.72696e-05 -0.000166549  7.90358e-06 -4.32397e-05 -0.000166549  7.98181e-06 -8.1875e-06 -0.000166549  2.26873e-06 -7.99481e-06 -0.000166549  
            </DataArray>
         </PointData> 
      </Piece>
   </UnstructuredGrid> 
</VTKFile>
