<?xml version="1.0"?>
<VTKFile type="UnstructuredGrid" version="0.1" byte_order="LittleEndian">
   <UnstructuredGrid>
      <Piece NumberOfPoints="25" NumberOfCells="0" > 
         <Points> 
            <DataArray type="Float64" Name="Position" NumberOfComponents="3" format="ascii"> 
               0  0  15  
               0.75  0  15  
               1.5  0  15  
               2.25  0  15  
               3  0  15  
               0  0.75  15  
               0.75  0.75  15  
               1.5  0.75  15  
               2.25  0.75  15  
               3  0.75  15  
               0  1.5  15  
               0.75  1.5  15  
               1.5  1.5  15  
               2.25  1.5  15  
               3  1.5  15  
               0  2.25  15  
               0.75  2.25  15  
               1.5  2.25  15  
               2.25  2.25  15  
               3  2.25  15  
               0  3  15  
               0.75  3  15  
               1.5  3  15  
               2.25  3  15  
               3  3  15  
            </DataArray>
         </Points> 

         <Cells>
            <DataArray type="Int32" Name="connectivity" NumberOfComponents="1" format="ascii">
               
            </DataArray> 
            <DataArray type="Int32" Name="offsets" NumberOfComponents="1" format="ascii">
               
            </DataArray>
            <DataArray type="UInt8"  Name="types" NumberOfComponents="1" format="ascii">
               
            </DataArray>
         </Cells>
         <PointData Scalars="Rank " Vectors="Displacement Velocity Traction ">
            <DataArray type="UInt32" Name="Rank" NumberOfComponents="1" format="ascii">
               0 0 0 0 0 0 0 0 0 0 0 0 0 0 0 0 0 0 0 0 0 0 0 0 0 
            </DataArray>
            <DataArray type="Float64" Name="Displacement" NumberOfComponents="3" format="ascii">
               0.00166906 0.002075 -0.0235423  0.0012322 0.000534391 -0.0223914  0.000791307 -0.000160591 -0.0209749  0.000509644 -0.000493338 -0.0224469  0.000189186 -0.00114867 -0.0235444  7.31068e-05 0.00163475 -0.0223967  -0.000358335 9.63292e-05 -0.0190005  -0.000921764 -0.00039242 -0.0160302  -0.00133885 -0.000822934 -0.0194627  -0.00156986 -0.00174264 -0.0221598  -0.000590671 0.00119377 -0.02097  -0.000819447 -0.000483843 -0.0160256  -0.00116441 -0.000745818 -0.0111466  -0.00156482 -0.00123436 -0.0161119  -0.00175971 -0.00245398 -0.0209357  -0.000957419 0.000910972 -0.0224327  -0.00128116 -0.000912629 -0.0194545  -0.00168557 -0.00114824 -0.016108  -0.00221886 -0.00177047 -0.0191438  -0.00263173 -0.00308821 -0.022351  -0.00166562 0.00058739 -0.0235222  -0.00225258 -0.00114552 -0.0221491  -0.00295614 -0.00134098 -0.0209295  -0.00358598 -0.00218427 -0.0223503  -0.00404587 -0.00355027 -0.0234012  
            </DataArray>
            <DataArray type="Float64" Name="Velocity" NumberOfComponents="3" format="ascii">
               -0.00117148 -0.00104936 -0.0586794  -0.00207405 0.00136134 -0.0540222  -0.00161366 0.0017118 -0.0493696  -0.000428515 0.000694777 -0.054226  -0.000711183 0.00275518 -0.0587864  0.00124729 -0.00195969 -0.0540503  -9.84735e-05 1.31962e-05 -0.0429307  -0.000420977 0.000297429 -0.032482  -0.000345282 -0.0004227 -0.0433863  -0.00121073 0.00171576 -0.0539046  0.00162123 -0.00150116 -0.049394  0.000201928 -0.000308658 -0.0324796  0.000103949 0.000209717 -0.0159297  -0.000254022 -0.000225939 -0.0325889  -0.00162902 0.00167938 -0.0493409  0.000595369 -0.000310439 -0.0542399  -0.000525036 -0.000228511 -0.0433781  -0.000340181 -0.000143492 -0.0325863  -0.000575744 -0.000455033 -0.0431261  -0.00187481 0.00152316 -0.0539509  0.00263358 -0.00059308 -0.0588322  0.00159401 -0.00108781 -0.0539221  0.00154321 -0.00151136 -0.0493648  0.00137485 -0.00175344 -0.0539761  0.000399662 0.000545539 -0.0584609  
            </DataArray>
            <DataArray type="Float64" Name="Traction" NumberOfComponents="3" format="ascii">
               0.0228871 0.0240346 0.444312  0.00788974 0.00820078 0.444312  -0.0056756 -0.00973068 0.444312  -0.0355253 0.0132136 0.444312  -0.0465456 0.0307281 0.444312  0.00849891 0.00936065 0.444312  0.00499329 0.00619115 0.444312  0.0176434 -0.00789152 0.444312  -0.0148928 0.00807429 0.444312  -0.0205484 0.0235722 0.444312  -0.00874057 -0.00463754 0.444312  -0.00941264 0.0185072 0.444312  0.0272312 0.0284027 0.444312  0.00042165 0.0155047 0.444312  0.00402888 0.0138839 0.444312  0.0140928 -0.0350221 0.444312  0.00752948 -0.0142753 0.444312  0.0147734 0.0014228 0.444312  -0.0123776 -0.0114142 0.444312  -0.00999866 -0.0156588 0.444312  0.0318741 -0.0466596 0.444312  0.0237185 -0.0196859 0.444312  0.013591 0.00563042 0.444312  -0.0164392 -0.0088531 0.444312  -0.0222502 -0.0212724 0.444312  
            </DataArray>
         </PointData> 
      </Piece>
   </UnstructuredGrid> 
</VTKFile>
