<?xml version="1.0"?>
<VTKFile type="UnstructuredGrid" version="0.1" byte_order="LittleEndian">
   <UnstructuredGrid>
      <Piece NumberOfPoints="25" NumberOfCells="0" > 
         <Points> 
            <DataArray type="Float64" Name="Position" NumberOfComponents="3" format="ascii"> 
               0  0  20  
               0.75  0  20  
               1.5  0  20  
               2.25  0  20  
               3  0  20  
               0  0.75  20  
               0.75  0.75  20  
               1.5  0.75  20  
               2.25  0.75  20  
               3  0.75  20  
               0  1.5  20  
               0.75  1.5  20  
               1.5  1.5  20  
               2.25  1.5  20  
               3  1.5  20  
               0  2.25  20  
               0.75  2.25  20  
               1.5  2.25  20  
               2.25  2.25  20  
               3  2.25  20  
               0  3  20  
               0.75  3  20  
               1.5  3  20  
               2.25  3  20  
               3  3  20  
            </DataArray>
         </Points> 

         <Cells>
            <DataArray type="Int32" Name="connectivity" NumberOfComponents="1" format="ascii">
               
            </DataArray> 
            <DataArray type="Int32" Name="offsets" NumberOfComponents="1" format="ascii">
               
            </DataArray>
            <DataArray type="UInt8"  Name="types" NumberOfComponents="1" format="ascii">
               
            </DataArray>
         </Cells>
         <PointData Scalars="Rank " Vectors="Displacement Velocity Traction ">
            <DataArray type="UInt32" Name="Rank" NumberOfComponents="1" format="ascii">
               0 0 0 0 0 0 0 0 0 0 0 0 0 0 0 0 0 0 0 0 0 0 0 0 0 
            </DataArray>
            <DataArray type="Float64" Name="Displacement" NumberOfComponents="3" format="ascii">
               7.32198e-08 7.30888e-08 -2.62896e-07  3.87866e-10 1.28367e-07 -2.36926e-07  -1.40933e-08 1.71102e-07 -2.133e-07  -1.52607e-08 1.19472e-07 -2.34901e-07  -8.4043e-08 9.88855e-08 -2.62149e-07  1.28497e-07 4.28126e-10 -2.36936e-07  2.55515e-08 2.55904e-08 -1.76979e-07  -3.5636e-09 4.62148e-08 -1.24645e-07  -2.27722e-08 2.2077e-08 -1.77338e-07  -1.18783e-07 2.60238e-08 -2.34889e-07  1.71021e-07 -1.40499e-08 -2.13301e-07  4.62173e-08 -3.49459e-09 -1.24647e-07  3.20282e-09 3.18073e-09 -4.44429e-08  -4.23358e-08 3.66929e-09 -1.25015e-07  -1.68487e-07 1.52784e-08 -2.13773e-07  1.19372e-07 -1.52611e-08 -2.34885e-07  2.20588e-08 -2.28069e-08 -1.77349e-07  3.74291e-09 -4.23614e-08 -1.25025e-07  -2.45024e-08 -2.44823e-08 -1.77264e-07  -1.27818e-07 -2.00905e-09 -2.36984e-07  9.89208e-08 -8.41088e-08 -2.62122e-07  2.60144e-08 -1.1881e-07 -2.34908e-07  1.54392e-08 -1.68618e-07 -2.13819e-07  -2.06521e-09 -1.2817e-07 -2.37013e-07  -7.33556e-08 -7.35928e-08 -2.62789e-07  
            </DataArray>
            <DataArray type="Float64" Name="Velocity" NumberOfComponents="3" format="ascii">
               1.88597e-07 1.8797e-07 -7.20776e-07  -4.56605e-09 3.41715e-07 -6.50763e-07  -6.36055e-08 4.40776e-07 -5.86489e-07  -6.11723e-08 3.03835e-07 -6.40833e-07  -2.33111e-07 2.97049e-07 -7.19679e-07  3.42339e-07 -4.38329e-09 -6.50825e-07  7.96972e-08 7.98887e-08 -4.967e-07  -1.51622e-08 1.41553e-07 -3.742e-07  -6.8262e-08 6.63342e-08 -4.99537e-07  -3.00985e-07 1.05964e-07 -6.4014e-07  4.40356e-07 -6.3378e-08 -5.8648e-07  1.41554e-07 -1.47708e-08 -3.74208e-07  1.22912e-08 1.21764e-08 -1.93461e-07  -1.25719e-07 1.55157e-08 -3.75877e-07  -4.30099e-07 6.78101e-08 -5.88274e-07  3.03275e-07 -6.11628e-08 -6.40728e-07  6.62233e-08 -6.84571e-08 -4.99594e-07  1.59089e-08 -1.25874e-07 -3.75902e-07  -7.51167e-08 -7.50668e-08 -4.98055e-07  -3.38795e-07 -1.96041e-09 -6.50888e-07  2.9717e-07 -2.33439e-07 -7.19527e-07  1.05928e-07 -3.01135e-07 -6.40249e-07  6.85933e-08 -4.30788e-07 -5.88503e-07  -2.17757e-09 -3.40621e-07 -6.51053e-07  -1.89825e-07 -1.91052e-07 -7.20749e-07  
            </DataArray>
            <DataArray type="Float64" Name="Traction" NumberOfComponents="3" format="ascii">
               0 0 0  0 0 0  0 0 0  0 0 0  0 0 0  0 0 0  0 0 0  0 0 0  0 0 0  0 0 0  0 0 0  0 0 0  0 0 0  0 0 0  0 0 0  0 0 0  0 0 0  0 0 0  0 0 0  0 0 0  0 0 0  0 0 0  0 0 0  0 0 0  0 0 0  
            </DataArray>
         </PointData> 
      </Piece>
   </UnstructuredGrid> 
</VTKFile>
