<?xml version="1.0"?>
<VTKFile type="UnstructuredGrid" version="0.1" byte_order="LittleEndian">
   <UnstructuredGrid>
      <Piece NumberOfPoints="25" NumberOfCells="0" > 
         <Points> 
            <DataArray type="Float64" Name="Position" NumberOfComponents="3" format="ascii"> 
               0  0  15  
               0.75  0  15  
               1.5  0  15  
               2.25  0  15  
               3  0  15  
               0  0.75  15  
               0.75  0.75  15  
               1.5  0.75  15  
               2.25  0.75  15  
               3  0.75  15  
               0  1.5  15  
               0.75  1.5  15  
               1.5  1.5  15  
               2.25  1.5  15  
               3  1.5  15  
               0  2.25  15  
               0.75  2.25  15  
               1.5  2.25  15  
               2.25  2.25  15  
               3  2.25  15  
               0  3  15  
               0.75  3  15  
               1.5  3  15  
               2.25  3  15  
               3  3  15  
            </DataArray>
         </Points> 

         <Cells>
            <DataArray type="Int32" Name="connectivity" NumberOfComponents="1" format="ascii">
               
            </DataArray> 
            <DataArray type="Int32" Name="offsets" NumberOfComponents="1" format="ascii">
               
            </DataArray>
            <DataArray type="UInt8"  Name="types" NumberOfComponents="1" format="ascii">
               
            </DataArray>
         </Cells>
         <PointData Scalars="Rank " Vectors="Displacement Velocity Traction ">
            <DataArray type="UInt32" Name="Rank" NumberOfComponents="1" format="ascii">
               0 0 0 0 0 0 0 0 0 0 0 0 0 0 0 0 0 0 0 0 0 0 0 0 0 
            </DataArray>
            <DataArray type="Float64" Name="Displacement" NumberOfComponents="3" format="ascii">
               0.000542185 0.000447343 -0.000176689  0.000520074 8.68115e-05 -0.000165968  0.000431494 6.04925e-06 -0.00015299  0.000327945 -2.7853e-05 -0.000162589  0.000290618 -0.000245371 -0.00017267  0.000120773 0.000427119 -0.000167234  0.000123971 8.8629e-05 -0.000137922  8.4632e-05 2.79623e-05 -0.000117701  5.03348e-05 -3.06699e-05 -0.000141975  6.0055e-05 -0.000280374 -0.000158659  1.45205e-05 0.000346405 -0.000154832  3.96173e-05 3.78392e-05 -0.000117928  -4.04005e-06 -3.03157e-05 -8.5349e-05  -3.89407e-05 -9.81734e-05 -0.000118551  -8.56362e-06 -0.000373031 -0.00015165  -3.84315e-05 0.000249701 -0.000164253  -3.18152e-05 -1.45132e-05 -0.000141849  -7.33732e-05 -8.33749e-05 -0.000118425  -0.000111512 -0.000162824 -0.000138768  -0.000107408 -0.000444878 -0.000163799  -0.000227852 0.000214362 -0.000176177  -0.000255525 -1.85166e-05 -0.000159761  -0.000326852 -7.25097e-05 -0.000152706  -0.000375355 -0.00017507 -0.000165117  -0.00038155 -0.000460024 -0.00017291  
            </DataArray>
            <DataArray type="Float64" Name="Velocity" NumberOfComponents="3" format="ascii">
               0.000292034 0.000323763 -0.00024031  0.000272565 3.90563e-05 -0.000234127  0.000200637 -4.88635e-05 -0.000220887  0.000116326 -5.85163e-05 -0.000232614  8.40511e-05 -0.000230755 -0.000237356  -4.94859e-06 0.000303397 -0.000234169  -5.39468e-06 3.78164e-05 -0.000206563  -5.56308e-05 -2.11445e-05 -0.000186526  -0.000104406 -5.45795e-05 -0.00021481  -0.000101717 -0.000262395 -0.000226057  -9.1415e-05 0.000233245 -0.000221804  -6.49063e-05 -1.39454e-05 -0.000186936  -9.80158e-05 -5.47456e-05 -0.000151355  -0.000128724 -0.000106706 -0.000187379  -0.000101284 -0.000343203 -0.000218001  -0.000100617 0.000150914 -0.000234132  -9.73669e-05 -6.27136e-05 -0.00021521  -0.000148881 -8.58355e-05 -0.000187558  -0.00020019 -0.000160909 -0.000208137  -0.000200239 -0.000411152 -0.00023069  -0.000271744 0.000119016 -0.000240258  -0.000302268 -5.98528e-05 -0.00022698  -0.000380231 -5.93741e-05 -0.000219024  -0.000444113 -0.00016406 -0.000231656  -0.000460783 -0.000430786 -0.000235347  
            </DataArray>
            <DataArray type="Float64" Name="Traction" NumberOfComponents="3" format="ascii">
               0.0082905 0.0085472 -0.0196308  0.000301569 0.00978216 -0.0196308  -0.00185798 0.0102273 -0.0196308  -0.00393782 0.0107028 -0.0196308  -0.0121159 0.0111922 -0.0196308  0.0104713 0.000712899 -0.0196308  0.00214682 0.00293497 -0.0196308  -0.0004413 0.00355646 -0.0196308  -0.00296944 0.00292943 -0.0196308  -0.0103051 0.00356873 -0.0196308  0.0105035 -0.00183749 -0.0196308  0.00212714 -5.87804e-05 -0.0196308  -0.000749389 -0.000303653 -0.0196308  -0.00384642 -0.000641092 -0.0196308  -0.0110833 0.000790593 -0.0196308  0.0105039 -0.0039873 -0.0196308  0.00173932 -0.0031553 -0.0196308  -0.00102421 -0.00433873 -0.0196308  -0.00397021 -0.00452677 -0.0196308  -0.00828939 -0.00367157 -0.0196308  0.0110623 -0.0128583 -0.0196308  0.00252372 -0.0102861 -0.0196308  0.000676636 -0.0106973 -0.0196308  -0.00309047 -0.00896083 -0.0196308  -0.0044734 -0.00502744 -0.0196308  
            </DataArray>
         </PointData> 
      </Piece>
   </UnstructuredGrid> 
</VTKFile>
