<?xml version="1.0"?>
<VTKFile type="UnstructuredGrid" version="0.1" byte_order="LittleEndian">
   <UnstructuredGrid>
      <Piece NumberOfPoints="25" NumberOfCells="0" > 
         <Points> 
            <DataArray type="Float64" Name="Position" NumberOfComponents="3" format="ascii"> 
               0  0  20  
               0.75  0  20  
               1.5  0  20  
               2.25  0  20  
               3  0  20  
               0  0.75  20  
               0.75  0.75  20  
               1.5  0.75  20  
               2.25  0.75  20  
               3  0.75  20  
               0  1.5  20  
               0.75  1.5  20  
               1.5  1.5  20  
               2.25  1.5  20  
               3  1.5  20  
               0  2.25  20  
               0.75  2.25  20  
               1.5  2.25  20  
               2.25  2.25  20  
               3  2.25  20  
               0  3  20  
               0.75  3  20  
               1.5  3  20  
               2.25  3  20  
               3  3  20  
            </DataArray>
         </Points> 

         <Cells>
            <DataArray type="Int32" Name="connectivity" NumberOfComponents="1" format="ascii">
               
            </DataArray> 
            <DataArray type="Int32" Name="offsets" NumberOfComponents="1" format="ascii">
               
            </DataArray>
            <DataArray type="UInt8"  Name="types" NumberOfComponents="1" format="ascii">
               
            </DataArray>
         </Cells>
         <PointData Scalars="Rank " Vectors="Displacement Velocity Traction ">
            <DataArray type="UInt32" Name="Rank" NumberOfComponents="1" format="ascii">
               0 0 0 0 0 0 0 0 0 0 0 0 0 0 0 0 0 0 0 0 0 0 0 0 0 
            </DataArray>
            <DataArray type="Float64" Name="Displacement" NumberOfComponents="3" format="ascii">
               1.10193e-05 9.99418e-06 -4.47588e-05  -5.44665e-07 2.08285e-05 -3.9814e-05  -5.15477e-06 2.7076e-05 -3.51701e-05  -3.01845e-06 1.79533e-05 -3.80294e-05  -1.3382e-05 1.86122e-05 -4.36052e-05  2.21671e-05 -1.64211e-06 -4.05206e-05  6.25224e-06 4.85866e-06 -2.95563e-05  1.65619e-07 8.87003e-06 -2.18412e-05  -2.31362e-06 3.67141e-06 -2.94496e-05  -1.64375e-05 7.18954e-06 -3.77676e-05  2.88246e-05 -6.34526e-06 -3.5887e-05  1.05565e-05 -8.43744e-07 -2.18244e-05  2.399e-06 1.27076e-06 -1.07911e-05  -6.64735e-06 1.89152e-06 -2.21413e-05  -2.55106e-05 7.57355e-06 -3.55364e-05  1.93943e-05 -4.74729e-06 -3.84186e-05  5.14476e-06 -3.23919e-06 -2.92581e-05  3.10843e-06 -7.25489e-06 -2.2001e-05  -3.12718e-06 -3.84237e-06 -2.9576e-05  -2.00996e-05 2.52007e-06 -3.98546e-05  1.932e-05 -1.53089e-05 -4.45051e-05  8.02756e-06 -1.7595e-05 -3.8039e-05  8.30317e-06 -2.60762e-05 -3.56221e-05  3.16653e-06 -2.04909e-05 -4.006e-05  -9.26374e-06 -9.967e-06 -4.44426e-05  
            </DataArray>
            <DataArray type="Float64" Name="Velocity" NumberOfComponents="3" format="ascii">
               2.43763e-05 2.43397e-05 -8.69355e-05  -7.44199e-07 4.22975e-05 -8.07899e-05  -1.37067e-05 4.9211e-05 -7.40401e-05  -1.10004e-05 3.45937e-05 -7.8749e-05  -2.79934e-05 4.22966e-05 -8.45369e-05  4.32071e-05 -6.27848e-07 -8.16542e-05  1.36308e-05 1.27512e-05 -6.57621e-05  -2.17791e-06 1.97411e-05 -5.56522e-05  -9.638e-06 1.14197e-05 -6.79304e-05  -3.24961e-05 2.01074e-05 -7.64483e-05  5.09864e-05 -1.38637e-05 -7.53451e-05  2.12847e-05 -2.38612e-06 -5.58023e-05  2.2542e-06 1.51517e-06 -3.91483e-05  -1.59199e-05 3.30762e-06 -5.60903e-05  -4.53703e-05 1.45505e-05 -7.30141e-05  3.67475e-05 -1.26806e-05 -7.99135e-05  1.31806e-05 -1.03856e-05 -6.77875e-05  4.51669e-06 -1.68677e-05 -5.60031e-05  -9.45792e-06 -1.08628e-05 -6.62478e-05  -3.85262e-05 1.28509e-06 -7.92135e-05  4.42457e-05 -3.03932e-05 -8.69742e-05  2.20631e-05 -3.4024e-05 -7.71994e-05  1.56969e-05 -4.6794e-05 -7.39075e-05  1.94592e-06 -4.01998e-05 -8.03501e-05  -2.23673e-05 -2.32746e-05 -8.42093e-05  
            </DataArray>
            <DataArray type="Float64" Name="Traction" NumberOfComponents="3" format="ascii">
               -0.00012041 -0.000111719 -0.000965339  -5.20026e-05 -0.000166123 -0.000965339  1.68322e-05 -0.000227268 -0.000965339  3.28101e-05 -0.000157936 -0.000965339  0.000109721 -0.000126539 -0.000965339  -0.000167766 -4.69722e-05 -0.000965339  -6.31714e-05 -6.51486e-05 -0.000965339  5.5779e-05 -0.00011564 -0.000965339  7.38568e-05 -7.06219e-05 -0.000965339  0.00015488 -4.07251e-05 -0.000965339  -0.000229522 1.50257e-05 -0.000965339  -0.000114113 4.91213e-05 -0.000965339  5.29802e-05 4.6782e-05 -0.000965339  0.000118699 1.65998e-05 -0.000965339  0.000232373 7.89728e-06 -0.000965339  -0.000150538 3.67413e-05 -0.000965339  -6.23611e-05 7.3757e-05 -0.000965339  2.37746e-05 0.000113931 -0.000965339  7.37478e-05 7.03104e-05 -0.000965339  0.000182269 4.22646e-05 -0.000965339  -0.000118907 0.000118477 -0.000965339  -3.28094e-05 0.000162208 -0.000965339  1.61301e-05 0.000232624 -0.000965339  4.54369e-05 0.000181299 -0.000965339  0.000112795 0.00011246 -0.000965339  
            </DataArray>
         </PointData> 
      </Piece>
   </UnstructuredGrid> 
</VTKFile>
