<?xml version="1.0"?>
<VTKFile type="UnstructuredGrid" version="0.1" byte_order="LittleEndian">
   <UnstructuredGrid>
      <Piece NumberOfPoints="25" NumberOfCells="0" > 
         <Points> 
            <DataArray type="Float64" Name="Position" NumberOfComponents="3" format="ascii"> 
               0  0  20  
               0.75  0  20  
               1.5  0  20  
               2.25  0  20  
               3  0  20  
               0  0.75  20  
               0.75  0.75  20  
               1.5  0.75  20  
               2.25  0.75  20  
               3  0.75  20  
               0  1.5  20  
               0.75  1.5  20  
               1.5  1.5  20  
               2.25  1.5  20  
               3  1.5  20  
               0  2.25  20  
               0.75  2.25  20  
               1.5  2.25  20  
               2.25  2.25  20  
               3  2.25  20  
               0  3  20  
               0.75  3  20  
               1.5  3  20  
               2.25  3  20  
               3  3  20  
            </DataArray>
         </Points> 

         <Cells>
            <DataArray type="Int32" Name="connectivity" NumberOfComponents="1" format="ascii">
               
            </DataArray> 
            <DataArray type="Int32" Name="offsets" NumberOfComponents="1" format="ascii">
               
            </DataArray>
            <DataArray type="UInt8"  Name="types" NumberOfComponents="1" format="ascii">
               
            </DataArray>
         </Cells>
         <PointData Scalars="Rank " Vectors="Displacement Velocity Traction ">
            <DataArray type="UInt32" Name="Rank" NumberOfComponents="1" format="ascii">
               0 0 0 0 0 0 0 0 0 0 0 0 0 0 0 0 0 0 0 0 0 0 0 0 0 
            </DataArray>
            <DataArray type="Float64" Name="Displacement" NumberOfComponents="3" format="ascii">
               0.000146721 0.000152167 -0.000641135  -9.91603e-07 0.000261711 -0.000628956  -9.17909e-05 0.000309194 -0.000596059  -7.94804e-05 0.000219717 -0.000626063  -0.000170375 0.000281727 -0.000639252  0.000257679 4.22325e-06 -0.00062807  7.88704e-05 8.2404e-05 -0.000559072  -2.95681e-05 0.000130898 -0.000507048  -8.21598e-05 8.34923e-05 -0.000580172  -0.000216597 0.000145506 -0.000610911  0.000307051 -8.66441e-05 -0.000596707  0.000128675 -2.51237e-05 -0.000507779  -1.27085e-06 2.2101e-06 -0.000415495  -0.000120865 2.13675e-05 -0.000509456  -0.000296762 8.57744e-05 -0.000591653  0.000219735 -7.68478e-05 -0.00062782  8.24013e-05 -7.87239e-05 -0.000581066  1.87862e-05 -0.000118178 -0.000509775  -7.63717e-05 -7.43629e-05 -0.000563397  -0.000251041 -8.91109e-06 -0.000623813  0.000281846 -0.0001697 -0.000641922  0.000145116 -0.000214199 -0.000611698  8.38356e-05 -0.000294742 -0.000592116  -1.26465e-05 -0.000250134 -0.000623834  -0.000156675 -0.000152711 -0.000633312  
            </DataArray>
            <DataArray type="Float64" Name="Velocity" NumberOfComponents="3" format="ascii">
               0.000143477 0.000149458 -0.000679538  3.0232e-06 0.000253257 -0.000684819  -9.20413e-05 0.000298183 -0.000661083  -8.61694e-05 0.000216299 -0.000688817  -0.000167815 0.000284985 -0.000688531  0.000244736 8.05149e-06 -0.000680232  7.50064e-05 8.22826e-05 -0.000633438  -3.58319e-05 0.000130655 -0.000592899  -9.26572e-05 8.93095e-05 -0.000659133  -0.000217324 0.000153732 -0.000673982  0.000289478 -8.58055e-05 -0.000657085  0.000123103 -3.05285e-05 -0.000593292  -8.4769e-06 -2.88081e-06 -0.000513596  -0.000129248 2.04068e-05 -0.000595249  -0.0002933 8.15387e-05 -0.000659165  0.000208837 -7.66619e-05 -0.000686453  8.2567e-05 -8.60534e-05 -0.000660498  1.45906e-05 -0.000123096 -0.000595797  -8.42308e-05 -7.76556e-05 -0.000638858  -0.000250856 -1.86283e-05 -0.000683889  0.000278031 -0.000157829 -0.000681754  0.000146562 -0.000209001 -0.000671606  7.63536e-05 -0.000285957 -0.000656087  -2.36284e-05 -0.00024385 -0.000679686  -0.000162233 -0.000155947 -0.000678083  
            </DataArray>
            <DataArray type="Float64" Name="Traction" NumberOfComponents="3" format="ascii">
               -0.00109674 -0.00106984 -0.00792701  -0.000363087 -0.00187551 -0.00792701  0.000491566 -0.00218303 -0.00792701  0.000390575 -0.00143068 -0.00792701  0.00083985 -0.00163432 -0.00792701  -0.00189639 -0.000322734 -0.00792701  -0.0008081 -0.000776513 -0.00792701  0.000594946 -0.00121003 -0.00792701  0.000693886 -0.000794391 -0.00792701  0.00123505 -0.000810802 -0.00792701  -0.00221778 0.000534077 -0.00792701  -0.00124768 0.000624923 -0.00792701  0.000453705 0.000485635 -0.00792701  0.00107932 0.000123943 -0.00792701  0.00199788 -0.000105976 -0.00792701  -0.00146983 0.000443857 -0.00792701  -0.00082722 0.00073116 -0.00792701  9.6187e-05 0.00111625 -0.00792701  0.000681845 0.000716406 -0.00792701  0.0016983 0.000331026 -0.00792701  -0.00167825 0.000902579 -0.00792701  -0.000845311 0.00127901 -0.00792701  -0.000133374 0.00204055 -0.00792701  0.0003113 0.00174102 -0.00792701  0.00100778 0.00102593 -0.00792701  
            </DataArray>
         </PointData> 
      </Piece>
   </UnstructuredGrid> 
</VTKFile>
