<?xml version="1.0"?>
<VTKFile type="UnstructuredGrid" version="0.1" byte_order="LittleEndian">
   <UnstructuredGrid>
      <Piece NumberOfPoints="25" NumberOfCells="0" > 
         <Points> 
            <DataArray type="Float64" Name="Position" NumberOfComponents="3" format="ascii"> 
               0  0  15  
               0.75  0  15  
               1.5  0  15  
               2.25  0  15  
               3  0  15  
               0  0.75  15  
               0.75  0.75  15  
               1.5  0.75  15  
               2.25  0.75  15  
               3  0.75  15  
               0  1.5  15  
               0.75  1.5  15  
               1.5  1.5  15  
               2.25  1.5  15  
               3  1.5  15  
               0  2.25  15  
               0.75  2.25  15  
               1.5  2.25  15  
               2.25  2.25  15  
               3  2.25  15  
               0  3  15  
               0.75  3  15  
               1.5  3  15  
               2.25  3  15  
               3  3  15  
            </DataArray>
         </Points> 

         <Cells>
            <DataArray type="Int32" Name="connectivity" NumberOfComponents="1" format="ascii">
               
            </DataArray> 
            <DataArray type="Int32" Name="offsets" NumberOfComponents="1" format="ascii">
               
            </DataArray>
            <DataArray type="UInt8"  Name="types" NumberOfComponents="1" format="ascii">
               
            </DataArray>
         </Cells>
         <PointData Scalars="Rank " Vectors="Displacement Velocity Traction ">
            <DataArray type="UInt32" Name="Rank" NumberOfComponents="1" format="ascii">
               0 0 0 0 0 0 0 0 0 0 0 0 0 0 0 0 0 0 0 0 0 0 0 0 0 
            </DataArray>
            <DataArray type="Float64" Name="Displacement" NumberOfComponents="3" format="ascii">
               0.00121416 0.00164992 -0.0516192  0.000259064 0.00127429 -0.0479812  6.83095e-05 0.000673399 -0.0441762  0.000449332 -9.98443e-05 -0.0483739  -8.85031e-06 0.000369326 -0.0518725  0.000781303 0.000686303 -0.0479939  -0.000370197 0.000114802 -0.0390611  -0.00109133 -0.000234148 -0.0304208  -0.00140707 -0.00100608 -0.0395899  -0.00206679 -0.00082296 -0.0480042  0.000223983 0.000496182 -0.0441776  -0.00068374 -0.000623614 -0.0304157  -0.000972738 -0.000526836 -0.0165621  -0.00150986 -0.00123606 -0.0305318  -0.00240422 -0.00157339 -0.0441365  -0.000588904 0.000881233 -0.0483637  -0.00148972 -0.000949204 -0.0395799  -0.00171757 -0.00106429 -0.0305275  -0.00235649 -0.0018758 -0.0392709  -0.00348325 -0.00227569 -0.0479234  -0.000183059 0.00041959 -0.0518634  -0.00136611 -0.00160841 -0.0479987  -0.00211294 -0.00195443 -0.044137  -0.00281437 -0.00300526 -0.0479292  -0.00379929 -0.00326529 -0.0514134  
            </DataArray>
            <DataArray type="Float64" Name="Velocity" NumberOfComponents="3" format="ascii">
               -0.00279621 -0.00265983 -0.21402  -0.00746371 0.00621553 -0.193878  -0.0053603 0.00618277 -0.174976  0.000479018 0.00309487 -0.198202  -0.000553461 0.0129933 -0.217411  0.00604677 -0.0073763 -0.193911  -5.99294e-05 9.61937e-05 -0.151496  -0.00138538 0.00117112 -0.104921  -7.66915e-05 -0.00154944 -0.151175  -0.00336465 0.0075711 -0.197879  0.00611546 -0.00526189 -0.175002  0.00107563 -0.00123761 -0.10492  0.00221237 0.00234343 -0.0310877  0.00134082 0.000523257 -0.105041  -0.00417727 0.00700971 -0.175011  0.00297744 0.00062606 -0.198221  -0.00166407 8.32997e-05 -0.151168  0.000373318 0.00148088 -0.105042  -0.000452709 -0.000291611 -0.151891  -0.00663888 0.00645056 -0.193817  0.0127948 -0.000413724 -0.217473  0.00740281 -0.00318922 -0.197903  0.00681967 -0.00402678 -0.175041  0.00624222 -0.00650218 -0.193843  0.00175561 0.00193637 -0.213693  
            </DataArray>
            <DataArray type="Float64" Name="Traction" NumberOfComponents="3" format="ascii">
               -0.0539257 -0.0525037 3.14795  -0.0105078 -0.150858 3.14795  0.0183303 -0.268299 3.14795  -0.0257056 -0.143248 3.14795  0.0199899 -0.0529182 3.14795  -0.150252 -0.00840982 3.14795  -0.069046 -0.0672345 3.14795  0.104227 -0.171982 3.14795  0.0514149 -0.0631863 3.14795  0.130983 -0.00113495 3.14795  -0.26596 0.0197411 3.14795  -0.17453 0.105509 3.14795  0.200601 0.202856 3.14795  0.153286 0.101038 3.14795  0.257523 0.0357623 3.14795  -0.141527 -0.0251578 3.14795  -0.0637576 0.052268 3.14795  0.0999687 0.15518 3.14795  0.0564089 0.0580326 3.14795  0.147522 -0.000656362 3.14795  -0.0513785 0.0201587 3.14795  -0.000605967 0.132415 3.14795  0.0355398 0.260386 3.14795  -0.00174467 0.149617 3.14795  0.0538872 0.0552931 3.14795  
            </DataArray>
         </PointData> 
      </Piece>
   </UnstructuredGrid> 
</VTKFile>
