<?xml version="1.0"?>
<VTKFile type="UnstructuredGrid" version="0.1" byte_order="LittleEndian">
   <UnstructuredGrid>
      <Piece NumberOfPoints="25" NumberOfCells="0" > 
         <Points> 
            <DataArray type="Float64" Name="Position" NumberOfComponents="3" format="ascii"> 
               0  0  15  
               0.75  0  15  
               1.5  0  15  
               2.25  0  15  
               3  0  15  
               0  0.75  15  
               0.75  0.75  15  
               1.5  0.75  15  
               2.25  0.75  15  
               3  0.75  15  
               0  1.5  15  
               0.75  1.5  15  
               1.5  1.5  15  
               2.25  1.5  15  
               3  1.5  15  
               0  2.25  15  
               0.75  2.25  15  
               1.5  2.25  15  
               2.25  2.25  15  
               3  2.25  15  
               0  3  15  
               0.75  3  15  
               1.5  3  15  
               2.25  3  15  
               3  3  15  
            </DataArray>
         </Points> 

         <Cells>
            <DataArray type="Int32" Name="connectivity" NumberOfComponents="1" format="ascii">
               
            </DataArray> 
            <DataArray type="Int32" Name="offsets" NumberOfComponents="1" format="ascii">
               
            </DataArray>
            <DataArray type="UInt8"  Name="types" NumberOfComponents="1" format="ascii">
               
            </DataArray>
         </Cells>
         <PointData Scalars="Rank " Vectors="Displacement Velocity Traction ">
            <DataArray type="UInt32" Name="Rank" NumberOfComponents="1" format="ascii">
               0 0 0 0 0 0 0 0 0 0 0 0 0 0 0 0 0 0 0 0 0 0 0 0 0 
            </DataArray>
            <DataArray type="Float64" Name="Displacement" NumberOfComponents="3" format="ascii">
               3.98412e-05 1.38101e-05 -1.78615e-06  3.99021e-05 2.72345e-08 -2.79811e-06  3.67588e-05 6.66897e-07 -3.42874e-06  3.28162e-05 4.85508e-06 -3.31112e-06  3.20319e-05 3.00074e-06 -1.80231e-06  1.07199e-05 1.3722e-05 -2.72009e-06  1.12075e-05 6.83989e-07 -4.1968e-06  1.17039e-05 7.16599e-07 -5.02604e-06  1.19171e-05 4.2596e-06 -4.61837e-06  1.25333e-05 1.47343e-06 -3.04107e-06  1.23316e-05 1.30421e-05 -3.35656e-06  1.08116e-05 1.54306e-06 -5.03748e-06  6.38406e-06 -2.0708e-06 -5.9146e-06  2.26423e-06 3.02039e-06 -5.06431e-06  8.41225e-07 -1.23983e-06 -3.34293e-06  9.92544e-06 1.15277e-05 -3.23695e-06  9.52953e-06 1.60242e-06 -4.62479e-06  9.54451e-06 -5.12983e-06 -5.07431e-06  1.06537e-05 2.61852e-06 -4.25575e-06  1.03366e-05 3.15335e-07 -2.79966e-06  -2.70947e-06 1.09065e-05 -1.75035e-06  -3.03178e-06 1.20635e-06 -3.06548e-06  -4.16511e-06 -7.24262e-06 -3.35328e-06  -1.48613e-06 1.11581e-06 -2.76318e-06  1.3592e-06 2.62715e-06 -1.79967e-06  
            </DataArray>
            <DataArray type="Float64" Name="Velocity" NumberOfComponents="3" format="ascii">
               4.04596e-05 1.49476e-05 4.87394e-06  4.02884e-05 2.67244e-06 4.25958e-06  3.77746e-05 5.3048e-06 3.75266e-06  3.45926e-05 5.48979e-06 3.89896e-06  3.39373e-05 -6.82457e-07 4.7953e-06  1.58693e-05 1.54296e-05 4.34179e-06  1.63805e-05 3.30316e-06 2.94484e-06  1.79078e-05 4.24922e-06 2.4392e-06  1.9918e-05 4.00804e-06 3.05368e-06  2.12381e-05 -1.74888e-06 3.70525e-06  1.46797e-05 1.4524e-05 3.8438e-06  1.40011e-05 3.55486e-06 2.44155e-06  1.14254e-05 1.17074e-07 1.51749e-06  9.83552e-06 1.11944e-06 2.45368e-06  9.98174e-06 -4.42009e-06 3.6397e-06  1.01438e-05 1.24684e-05 3.9706e-06  1.03182e-05 2.79258e-06 3.04297e-06  1.12035e-05 -3.37839e-06 2.4281e-06  1.2811e-05 -2.10663e-07 2.99393e-06  1.30377e-05 -4.30835e-06 4.10522e-06  3.94436e-06 1.19716e-05 4.90591e-06  4.07544e-06 1.79151e-06 3.74126e-06  4.37001e-06 -5.77749e-06 3.71257e-06  7.08213e-06 -1.47012e-06 4.24133e-06  9.14663e-06 -2.62525e-06 4.62518e-06  
            </DataArray>
            <DataArray type="Float64" Name="Traction" NumberOfComponents="3" format="ascii">
               0.000534209 0.000501044 0.00053318  -0.000207834 0.000376494 0.00053318  3.31937e-06 0.00035707 0.00053318  0.00014736 0.000510965 0.00053318  -0.00067633 0.00060757 0.00053318  0.000756786 -0.000201677 0.00053318  8.48494e-05 2.41348e-05 0.00053318  7.224e-05 0.000254611 0.00053318  0.000139671 6.95899e-05 0.00053318  -0.000650265 -4.72367e-05 0.00053318  0.000844146 -1.80449e-05 0.00053318  0.000227286 4.07186e-05 0.00053318  7.29731e-05 3.86811e-05 0.00053318  4.06431e-05 5.48599e-06 0.00053318  -0.000867321 -2.25331e-05 0.00053318  0.000811183 0.000138824 0.00053318  4.35346e-05 5.38781e-05 0.00053318  3.67281e-05 -0.000150265 0.00053318  9.41781e-05 -6.77093e-05 0.00053318  -0.000107954 -0.000131114 0.00053318  0.000805791 -0.000787027 0.00053318  -5.19595e-05 -0.000608911 0.00053318  8.38485e-05 -0.000681682 0.00053318  5.09718e-05 -0.000124082 0.00053318  0.000590212 0.000467387 0.00053318  
            </DataArray>
         </PointData> 
      </Piece>
   </UnstructuredGrid> 
</VTKFile>
