<?xml version="1.0"?>
<VTKFile type="UnstructuredGrid" version="0.1" byte_order="LittleEndian">
   <UnstructuredGrid>
      <Piece NumberOfPoints="25" NumberOfCells="0" > 
         <Points> 
            <DataArray type="Float64" Name="Position" NumberOfComponents="3" format="ascii"> 
               0  0  15  
               0.75  0  15  
               1.5  0  15  
               2.25  0  15  
               3  0  15  
               0  0.75  15  
               0.75  0.75  15  
               1.5  0.75  15  
               2.25  0.75  15  
               3  0.75  15  
               0  1.5  15  
               0.75  1.5  15  
               1.5  1.5  15  
               2.25  1.5  15  
               3  1.5  15  
               0  2.25  15  
               0.75  2.25  15  
               1.5  2.25  15  
               2.25  2.25  15  
               3  2.25  15  
               0  3  15  
               0.75  3  15  
               1.5  3  15  
               2.25  3  15  
               3  3  15  
            </DataArray>
         </Points> 

         <Cells>
            <DataArray type="Int32" Name="connectivity" NumberOfComponents="1" format="ascii">
               
            </DataArray> 
            <DataArray type="Int32" Name="offsets" NumberOfComponents="1" format="ascii">
               
            </DataArray>
            <DataArray type="UInt8"  Name="types" NumberOfComponents="1" format="ascii">
               
            </DataArray>
         </Cells>
         <PointData Scalars="Rank " Vectors="Displacement Velocity Traction ">
            <DataArray type="UInt32" Name="Rank" NumberOfComponents="1" format="ascii">
               0 0 0 0 0 0 0 0 0 0 0 0 0 0 0 0 0 0 0 0 0 0 0 0 0 
            </DataArray>
            <DataArray type="Float64" Name="Displacement" NumberOfComponents="3" format="ascii">
               0.00171664 0.00192907 -0.00356388  0.00157227 0.000169804 -0.0035634  0.00112865 -0.000434782 -0.00344357  0.000636394 -0.000443068 -0.00358873  0.000440124 -0.00143877 -0.00359432  -0.000120045 0.00178386 -0.00355198  -0.000150435 0.000134795 -0.00328714  -0.000488938 -0.000288725 -0.00306791  -0.000804525 -0.000449772 -0.00341621  -0.000793949 -0.00166944 -0.00351641  -0.000707607 0.00134716 -0.00342998  -0.000560345 -0.000218442 -0.00306733  -0.000768497 -0.000506817 -0.00264432  -0.000972531 -0.000789655 -0.00308459  -0.000821716 -0.00219743 -0.00343742  -0.00074583 0.000859507 -0.00357649  -0.000746433 -0.000545824 -0.00341694  -0.00107292 -0.000715525 -0.00308447  -0.00141146 -0.00113877 -0.00331851  -0.00144464 -0.00263267 -0.00356143  -0.00177915 0.000661854 -0.00356489  -0.0020008 -0.000541145 -0.00350462  -0.002511 -0.000570042 -0.00342437  -0.00293128 -0.00117884 -0.00354856  -0.00306321 -0.00276972 -0.00354773  
            </DataArray>
            <DataArray type="Float64" Name="Velocity" NumberOfComponents="3" format="ascii">
               0.000413081 0.000573679 -0.00358963  0.000339752 3.34613e-05 -0.00355788  0.000200468 -0.000199857 -0.00343457  7.19772e-05 -0.000213614 -0.0035851  4.2129e-06 -0.000481672 -0.00360154  -0.000116153 0.000498878 -0.00355669  -0.000164875 -1.73109e-05 -0.0032591  -0.000309184 -0.000184392 -0.00301736  -0.000432153 -0.000243335 -0.00338082  -0.000447989 -0.000592232 -0.00351718  -0.000336239 0.000354454 -0.00342753  -0.000318165 -0.000164855 -0.00301493  -0.000396435 -0.000264021 -0.0025633  -0.000481579 -0.000361592 -0.00303719  -0.000460209 -0.00078728 -0.00342863  -0.000354677 0.000220841 -0.00357435  -0.000383641 -0.00028825 -0.00337733  -0.000505111 -0.000346568 -0.00303537  -0.000643906 -0.000493474 -0.00329396  -0.000691424 -0.000954587 -0.00355686  -0.00063988 0.000151226 -0.00358068  -0.000750725 -0.000301467 -0.00350814  -0.000949115 -0.000319418 -0.00342088  -0.00112232 -0.000535098 -0.00355242  -0.00120269 -0.00103125 -0.00356689  
            </DataArray>
            <DataArray type="Float64" Name="Traction" NumberOfComponents="3" format="ascii">
               0.036115 0.0373184 -0.0941987  0.00938465 0.0430511 -0.0941987  -0.00947399 0.0444033 -0.0941987  -0.0294079 0.0444533 -0.0941987  -0.0540578 0.0473785 -0.0941987  0.0435446 0.0109149 -0.0941987  0.0165107 0.0178102 -0.0941987  -0.000855639 0.018034 -0.0941987  -0.0225151 0.0181187 -0.0941987  -0.0481878 0.0238912 -0.0941987  0.0449724 -0.0083133 -0.0941987  0.0162812 0.000257927 -0.0941987  -0.000928017 0.000317278 -0.0941987  -0.0226984 -0.000749672 -0.0941987  -0.0481057 0.00564623 -0.0941987  0.0448903 -0.0287428 -0.0941987  0.0170249 -0.0217568 -0.0941987  -0.00172795 -0.0218264 -0.0941987  -0.022786 -0.0220597 -0.0941987  -0.0436439 -0.016529 -0.0941987  0.0480954 -0.0544617 -0.0941987  0.0232651 -0.0473848 -0.0941987  0.00513356 -0.046647 -0.0941987  -0.0169351 -0.0430318 -0.0941987  -0.0343985 -0.0339507 -0.0941987  
            </DataArray>
         </PointData> 
      </Piece>
   </UnstructuredGrid> 
</VTKFile>
