<?xml version="1.0"?>
<VTKFile type="UnstructuredGrid" version="0.1" byte_order="LittleEndian">
   <UnstructuredGrid>
      <Piece NumberOfPoints="25" NumberOfCells="0" > 
         <Points> 
            <DataArray type="Float64" Name="Position" NumberOfComponents="3" format="ascii"> 
               0  0  20  
               0.75  0  20  
               1.5  0  20  
               2.25  0  20  
               3  0  20  
               0  0.75  20  
               0.75  0.75  20  
               1.5  0.75  20  
               2.25  0.75  20  
               3  0.75  20  
               0  1.5  20  
               0.75  1.5  20  
               1.5  1.5  20  
               2.25  1.5  20  
               3  1.5  20  
               0  2.25  20  
               0.75  2.25  20  
               1.5  2.25  20  
               2.25  2.25  20  
               3  2.25  20  
               0  3  20  
               0.75  3  20  
               1.5  3  20  
               2.25  3  20  
               3  3  20  
            </DataArray>
         </Points> 

         <Cells>
            <DataArray type="Int32" Name="connectivity" NumberOfComponents="1" format="ascii">
               
            </DataArray> 
            <DataArray type="Int32" Name="offsets" NumberOfComponents="1" format="ascii">
               
            </DataArray>
            <DataArray type="UInt8"  Name="types" NumberOfComponents="1" format="ascii">
               
            </DataArray>
         </Cells>
         <PointData Scalars="Rank " Vectors="Displacement Velocity Traction ">
            <DataArray type="UInt32" Name="Rank" NumberOfComponents="1" format="ascii">
               0 0 0 0 0 0 0 0 0 0 0 0 0 0 0 0 0 0 0 0 0 0 0 0 0 
            </DataArray>
            <DataArray type="Float64" Name="Displacement" NumberOfComponents="3" format="ascii">
               8.56709e-07 9.125e-07 -4.32552e-06  1.41029e-07 1.32987e-06 -4.65504e-06  -7.24851e-07 1.29443e-06 -4.73858e-06  -6.77367e-07 1.10377e-06 -4.78871e-06  -8.6206e-07 1.92952e-06 -4.31403e-06  1.24244e-06 1.71909e-07 -4.63826e-06  5.8543e-07 6.24511e-07 -4.81703e-06  -3.23766e-07 8.54294e-07 -4.98867e-06  -7.10971e-07 7.74389e-07 -5.13127e-06  -9.34722e-07 1.28255e-06 -4.54557e-06  1.22795e-06 -6.78199e-07 -4.71831e-06  8.30419e-07 -2.80686e-07 -4.99348e-06  -8.12029e-08 -7.40697e-08 -4.98877e-06  -8.41285e-07 2.07582e-07 -5.02518e-06  -1.14647e-06 6.83917e-07 -4.66033e-06  1.04893e-06 -6.71127e-07 -4.75928e-06  7.47577e-07 -7.06656e-07 -5.13269e-06  2.19551e-07 -8.47489e-07 -5.02007e-06  -5.75644e-07 -5.8313e-07 -4.87722e-06  -1.21395e-06 -1.86916e-07 -4.61709e-06  1.87608e-06 -8.77846e-07 -4.30352e-06  1.2616e-06 -9.52172e-07 -4.56908e-06  6.94718e-07 -1.19138e-06 -4.6827e-06  -2.16609e-07 -1.27146e-06 -4.63328e-06  -9.72704e-07 -9.54191e-07 -4.27421e-06  
            </DataArray>
            <DataArray type="Float64" Name="Velocity" NumberOfComponents="3" format="ascii">
               -5.16446e-07 -4.34312e-07 5.23489e-07  3.82158e-07 -1.2445e-06 -2.10725e-07  4.02912e-07 -1.69694e-06 -7.58326e-07  2.68044e-07 -9.53635e-07 -5.76507e-07  1.07828e-06 -7.59053e-07 5.14711e-07  -1.40317e-06 4.31666e-07 -1.65976e-07  -1.9509e-07 -1.24168e-07 -1.34921e-06  -1.61554e-07 -3.95076e-07 -2.08881e-06  -6.51593e-08 5.90169e-08 -1.60565e-06  1.08495e-06 -1.05464e-07 -3.96264e-07  -1.79238e-06 4.73908e-07 -7.24275e-07  -4.44516e-07 -1.11277e-07 -2.09877e-06  -1.94514e-07 -1.64534e-07 -2.92766e-06  2.02855e-07 -1.48727e-09 -2.10557e-06  1.66946e-06 -4.43913e-07 -6.74984e-07  -1.01191e-06 2.8912e-07 -5.40541e-07  1.33257e-08 -3.65607e-08 -1.60729e-06  -2.0765e-08 2.31172e-07 -2.1098e-06  7.12172e-08 1.06929e-07 -1.38289e-06  1.24661e-06 -3.85738e-07 -1.87003e-07  -8.41217e-07 1.06779e-06 5.27305e-07  -1.66822e-07 1.08751e-06 -4.17558e-07  -4.88282e-07 1.6726e-06 -6.94028e-07  -4.69507e-07 1.27651e-06 -1.82694e-07  3.52594e-07 4.53912e-07 5.53733e-07  
            </DataArray>
            <DataArray type="Float64" Name="Traction" NumberOfComponents="3" format="ascii">
               -5.44048e-06 -4.3105e-06 -2.22405e-06  -2.65698e-06 -6.4539e-06 -2.22405e-06  3.30557e-06 -5.41568e-06 -2.22405e-06  1.02944e-06 -3.24881e-06 -2.22405e-06  -4.27031e-07 -8.44122e-06 -2.22405e-06  -6.23461e-06 -1.11188e-06 -2.22405e-06  -2.69475e-06 -2.48089e-06 -2.22405e-06  4.04817e-06 -4.3131e-06 -2.22405e-06  2.6544e-06 -3.67619e-06 -2.22405e-06  2.95481e-07 -5.25525e-06 -2.22405e-06  -5.90254e-06 4.37402e-06 -2.22405e-06  -4.85432e-06 4.07125e-06 -2.22405e-06  1.46949e-06 1.62764e-06 -2.22405e-06  4.48292e-06 -1.64961e-06 -2.22405e-06  4.59928e-06 -2.07941e-06 -2.22405e-06  -3.3971e-06 2.00761e-06 -2.22405e-06  -4.05294e-06 2.84922e-06 -2.22405e-06  -2.15009e-06 4.5214e-06 -2.22405e-06  1.59182e-06 2.2357e-06 -2.22405e-06  4.69908e-06 8.8675e-07 -2.22405e-06  -7.6957e-06 7.68524e-07 -2.22405e-06  -4.95213e-06 7.30658e-07 -2.22405e-06  -1.98235e-06 4.90261e-06 -2.22405e-06  1.17074e-06 5.88314e-06 -2.22405e-06  3.357e-06 3.38377e-06 -2.22405e-06  
            </DataArray>
         </PointData> 
      </Piece>
   </UnstructuredGrid> 
</VTKFile>
