<?xml version="1.0"?>
<VTKFile type="UnstructuredGrid" version="0.1" byte_order="LittleEndian">
   <UnstructuredGrid>
      <Piece NumberOfPoints="25" NumberOfCells="0" > 
         <Points> 
            <DataArray type="Float64" Name="Position" NumberOfComponents="3" format="ascii"> 
               0  0  15  
               0.75  0  15  
               1.5  0  15  
               2.25  0  15  
               3  0  15  
               0  0.75  15  
               0.75  0.75  15  
               1.5  0.75  15  
               2.25  0.75  15  
               3  0.75  15  
               0  1.5  15  
               0.75  1.5  15  
               1.5  1.5  15  
               2.25  1.5  15  
               3  1.5  15  
               0  2.25  15  
               0.75  2.25  15  
               1.5  2.25  15  
               2.25  2.25  15  
               3  2.25  15  
               0  3  15  
               0.75  3  15  
               1.5  3  15  
               2.25  3  15  
               3  3  15  
            </DataArray>
         </Points> 

         <Cells>
            <DataArray type="Int32" Name="connectivity" NumberOfComponents="1" format="ascii">
               
            </DataArray> 
            <DataArray type="Int32" Name="offsets" NumberOfComponents="1" format="ascii">
               
            </DataArray>
            <DataArray type="UInt8"  Name="types" NumberOfComponents="1" format="ascii">
               
            </DataArray>
         </Cells>
         <PointData Scalars="Rank " Vectors="Displacement Velocity Traction ">
            <DataArray type="UInt32" Name="Rank" NumberOfComponents="1" format="ascii">
               0 0 0 0 0 0 0 0 0 0 0 0 0 0 0 0 0 0 0 0 0 0 0 0 0 
            </DataArray>
            <DataArray type="Float64" Name="Displacement" NumberOfComponents="3" format="ascii">
               0 0 0  0 0 0  0 0 0  0 0 0  0 0 0  0 0 0  0 0 0  0 0 0  0 0 0  0 0 0  0 0 0  0 0 0  0 0 0  0 0 0  0 0 0  0 0 0  0 0 0  0 0 0  0 0 0  0 0 0  0 0 0  0 0 0  0 0 0  0 0 0  0 0 0  
            </DataArray>
            <DataArray type="Float64" Name="Velocity" NumberOfComponents="3" format="ascii">
               0 0 0  0 0 0  0 0 0  0 0 0  0 0 0  0 0 0  0 0 0  0 0 0  0 0 0  0 0 0  0 0 0  0 0 0  0 0 0  0 0 0  0 0 0  0 0 0  0 0 0  0 0 0  0 0 0  0 0 0  0 0 0  0 0 0  0 0 0  0 0 0  0 0 0  
            </DataArray>
            <DataArray type="Float64" Name="Traction" NumberOfComponents="3" format="ascii">
               0.00239598 0.00218182 -0.00208466  -0.000426386 0.0023294 -0.00208466  -0.00018263 0.00249392 -0.00208466  -4.14295e-06 0.00274315 -0.00208466  -0.00300739 0.0025454 -0.00208466  0.00300282 -0.000495171 -0.00208466  0.000237225 0.00044128 -0.00208466  0.000116311 0.00101854 -0.00208466  0.000216156 0.000439541 -0.00208466  -0.00229321 9.31597e-05 -0.00208466  0.00298682 -0.000347196 -0.00208466  0.000405011 0.000101847 -0.00208466  4.64175e-05 4.69467e-05 -0.00208466  -0.000186367 -0.000129118 -0.00208466  -0.00280032 8.20155e-05 -0.00208466  0.00295763 -0.000109876 -0.00208466  -7.54013e-06 -0.000169366 -0.00208466  -0.000129972 -0.000869532 -0.00208466  -0.000216634 -0.000807179 -0.00208466  -0.00110308 -0.000736762 -0.00208466  0.00290833 -0.00341806 -0.00208466  -0.000143507 -0.00244951 -0.00208466  0.000236228 -0.00275568 -0.00208466  -0.000298058 -0.00161797 -0.00208466  0.000609905 0.000282409 -0.00208466  
            </DataArray>
         </PointData> 
      </Piece>
   </UnstructuredGrid> 
</VTKFile>
