<?xml version="1.0"?>
<VTKFile type="UnstructuredGrid" version="0.1" byte_order="LittleEndian">
   <UnstructuredGrid>
      <Piece NumberOfPoints="25" NumberOfCells="0" > 
         <Points> 
            <DataArray type="Float64" Name="Position" NumberOfComponents="3" format="ascii"> 
               0  0  20  
               0.75  0  20  
               1.5  0  20  
               2.25  0  20  
               3  0  20  
               0  0.75  20  
               0.75  0.75  20  
               1.5  0.75  20  
               2.25  0.75  20  
               3  0.75  20  
               0  1.5  20  
               0.75  1.5  20  
               1.5  1.5  20  
               2.25  1.5  20  
               3  1.5  20  
               0  2.25  20  
               0.75  2.25  20  
               1.5  2.25  20  
               2.25  2.25  20  
               3  2.25  20  
               0  3  20  
               0.75  3  20  
               1.5  3  20  
               2.25  3  20  
               3  3  20  
            </DataArray>
         </Points> 

         <Cells>
            <DataArray type="Int32" Name="connectivity" NumberOfComponents="1" format="ascii">
               
            </DataArray> 
            <DataArray type="Int32" Name="offsets" NumberOfComponents="1" format="ascii">
               
            </DataArray>
            <DataArray type="UInt8"  Name="types" NumberOfComponents="1" format="ascii">
               
            </DataArray>
         </Cells>
         <PointData Scalars="Rank " Vectors="Displacement Velocity Traction ">
            <DataArray type="UInt32" Name="Rank" NumberOfComponents="1" format="ascii">
               0 0 0 0 0 0 0 0 0 0 0 0 0 0 0 0 0 0 0 0 0 0 0 0 0 
            </DataArray>
            <DataArray type="Float64" Name="Displacement" NumberOfComponents="3" format="ascii">
               3.02581e-09 3.02553e-09 -9.89442e-09  1.18625e-10 5.06392e-09 -8.96549e-09  -6.93329e-11 7.04239e-09 -8.06765e-09  -1.95692e-10 5.01192e-09 -8.95828e-09  -3.09227e-09 3.17665e-09 -9.88267e-09  5.0644e-09 1.18827e-10 -8.96551e-09  7.63218e-10 7.63328e-10 -6.52174e-09  -2.11393e-11 1.40703e-09 -4.13063e-09  -7.46483e-10 7.39235e-10 -6.51994e-09  -5.00754e-09 2.62175e-10 -8.95985e-09  7.0421e-09 -6.91763e-11 -8.06767e-09  1.40704e-09 -2.10221e-11 -4.13064e-09  2.27476e-11 2.26973e-11 -2.64834e-10  -1.3823e-09 2.18871e-11 -4.13244e-09  -7.02508e-09 7.90221e-11 -8.07107e-09  5.01175e-09 -1.95764e-10 -8.95826e-09  7.39259e-10 -7.4653e-10 -6.51997e-09  2.20228e-11 -1.38232e-09 -4.13252e-09  -7.57433e-10 -7.57246e-10 -6.52302e-09  -5.06244e-09 -1.29132e-10 -8.96612e-09  3.17684e-09 -3.09243e-09 -9.88259e-09  2.62126e-10 -5.00758e-09 -8.95991e-09  7.97002e-11 -7.02552e-09 -8.07124e-09  -1.29407e-10 -5.06348e-09 -8.96621e-09  -3.02479e-09 -3.02518e-09 -9.89242e-09  
            </DataArray>
            <DataArray type="Float64" Name="Velocity" NumberOfComponents="3" format="ascii">
               2.28504e-08 2.28466e-08 -7.54865e-08  7.55756e-10 3.84879e-08 -6.83282e-08  -8.24073e-10 5.33394e-08 -6.1475e-08  -1.67093e-09 3.78814e-08 -6.82401e-08  -2.36293e-08 2.46178e-08 -7.53558e-08  3.84935e-08 7.58082e-10 -6.83284e-08  5.91447e-09 5.9158e-09 -4.97746e-08  -2.44105e-10 1.09072e-08 -3.17589e-08  -5.71837e-09 5.63618e-09 -4.97565e-08  -3.78308e-08 2.44525e-09 -6.82576e-08  5.33361e-08 -8.22264e-10 -6.14753e-08  1.09074e-08 -2.42605e-10 -3.17591e-08  2.62861e-10 2.62202e-10 -2.76031e-09  -1.06196e-08 2.52912e-10 -3.17805e-08  -5.31396e-08 9.34799e-10 -6.15147e-08  3.78792e-08 -1.67165e-09 -6.82398e-08  5.6363e-09 -5.71897e-09 -4.97569e-08  2.54675e-10 -1.06199e-08 -3.17814e-08  -5.84648e-09 -5.84445e-09 -4.97898e-08  -3.84697e-08 -8.77991e-10 -6.83354e-08  2.462e-08 -2.36314e-08 -7.53549e-08  2.44466e-09 -3.78314e-08 -6.82582e-08  9.42542e-10 -5.31447e-08 -6.15167e-08  -8.81452e-10 -3.84821e-08 -6.83364e-08  -2.28394e-08 -2.28447e-08 -7.54641e-08  
            </DataArray>
            <DataArray type="Float64" Name="Traction" NumberOfComponents="3" format="ascii">
               0 0 0  0 0 0  0 0 0  0 0 0  0 0 0  0 0 0  0 0 0  0 0 0  0 0 0  0 0 0  0 0 0  0 0 0  0 0 0  0 0 0  0 0 0  0 0 0  0 0 0  0 0 0  0 0 0  0 0 0  0 0 0  0 0 0  0 0 0  0 0 0  0 0 0  
            </DataArray>
         </PointData> 
      </Piece>
   </UnstructuredGrid> 
</VTKFile>
