<?xml version="1.0"?>
<VTKFile type="UnstructuredGrid" version="0.1" byte_order="LittleEndian">
   <UnstructuredGrid>
      <Piece NumberOfPoints="25" NumberOfCells="0" > 
         <Points> 
            <DataArray type="Float64" Name="Position" NumberOfComponents="3" format="ascii"> 
               0  0  20  
               0.75  0  20  
               1.5  0  20  
               2.25  0  20  
               3  0  20  
               0  0.75  20  
               0.75  0.75  20  
               1.5  0.75  20  
               2.25  0.75  20  
               3  0.75  20  
               0  1.5  20  
               0.75  1.5  20  
               1.5  1.5  20  
               2.25  1.5  20  
               3  1.5  20  
               0  2.25  20  
               0.75  2.25  20  
               1.5  2.25  20  
               2.25  2.25  20  
               3  2.25  20  
               0  3  20  
               0.75  3  20  
               1.5  3  20  
               2.25  3  20  
               3  3  20  
            </DataArray>
         </Points> 

         <Cells>
            <DataArray type="Int32" Name="connectivity" NumberOfComponents="1" format="ascii">
               
            </DataArray> 
            <DataArray type="Int32" Name="offsets" NumberOfComponents="1" format="ascii">
               
            </DataArray>
            <DataArray type="UInt8"  Name="types" NumberOfComponents="1" format="ascii">
               
            </DataArray>
         </Cells>
         <PointData Scalars="Rank " Vectors="Displacement Velocity Traction ">
            <DataArray type="UInt32" Name="Rank" NumberOfComponents="1" format="ascii">
               0 0 0 0 0 0 0 0 0 0 0 0 0 0 0 0 0 0 0 0 0 0 0 0 0 
            </DataArray>
            <DataArray type="Float64" Name="Displacement" NumberOfComponents="3" format="ascii">
               -2.28962e-06 -2.32395e-06 2.19939e-06  7.20515e-07 -3.82635e-06 1.13606e-06  1.90269e-06 -3.73781e-06 4.64487e-07  1.8144e-06 -2.76338e-06 5.92887e-07  3.53793e-06 -3.78206e-06 2.06511e-06  -4.04454e-06 6.48142e-07 1.2495e-06  -1.19313e-06 -1.1117e-06 -6.21563e-07  2.61974e-08 -1.6272e-06 -1.29475e-06  8.59243e-07 -9.97669e-07 -6.84755e-07  2.8005e-06 -1.8183e-06 4.86321e-07  -3.93842e-06 1.93923e-06 6.23923e-07  -1.74107e-06 6.57835e-08 -1.28403e-06  -2.86854e-07 -1.85897e-07 -2.36759e-06  1.09887e-06 -1.38689e-07 -1.31471e-06  3.28908e-06 -1.62092e-06 3.08321e-07  -2.99486e-06 1.8502e-06 7.49367e-07  -1.17609e-06 9.4334e-07 -6.97322e-07  -3.04217e-07 1.33548e-06 -1.33571e-06  7.17163e-07 1.05438e-06 -5.966e-07  3.22062e-06 -5.10811e-07 8.81846e-07  -4.17274e-06 3.58074e-06 2.29226e-06  -2.20853e-06 2.96299e-06 5.34812e-07  -1.90849e-06 3.60856e-06 4.3583e-07  -8.2738e-07 3.62269e-06 1.09934e-06  1.7785e-06 2.15507e-06 1.77311e-06  
            </DataArray>
            <DataArray type="Float64" Name="Velocity" NumberOfComponents="3" format="ascii">
               -1.76933e-06 -2.13634e-06 3.05778e-06  -1.79702e-07 -1.96447e-06 3.79889e-06  1.45325e-06 -6.69105e-07 4.33585e-06  1.74318e-06 -1.22953e-06 4.15793e-06  1.7119e-06 -3.26135e-06 2.96346e-06  -1.659e-06 -5.59313e-07 3.74767e-06  -1.08093e-06 -1.3352e-06 4.65716e-06  6.16263e-07 -1.30533e-06 5.75121e-06  1.56302e-06 -1.59495e-06 5.39444e-06  1.04203e-06 -2.37092e-06 3.51639e-06  -4.96654e-07 1.11845e-06 4.40962e-06  -1.15288e-06 3.73983e-07 5.80457e-06  3.20134e-07 2.15823e-07 6.58957e-06  1.2194e-06 -1.20099e-07 5.76401e-06  2.03979e-07 -7.77735e-07 3.87341e-06  -1.27283e-06 1.59101e-06 4.27135e-06  -1.57751e-06 1.49225e-06 5.40393e-06  -1.31795e-07 1.35368e-06 5.77988e-06  1.0633e-06 1.29299e-06 4.79914e-06  1.16225e-06 6.89466e-07 3.36172e-06  -3.5155e-06 1.67915e-06 3.22949e-06  -2.62991e-06 1.12592e-06 3.62793e-06  -9.14214e-07 5.1622e-07 4.11328e-06  6.46479e-07 1.56109e-06 3.62221e-06  1.76736e-06 1.84943e-06 2.40066e-06  
            </DataArray>
            <DataArray type="Float64" Name="Traction" NumberOfComponents="3" format="ascii">
               1.03889e-05 9.87145e-06 2.93862e-05  -8.22816e-06 3.28006e-05 2.93862e-05  -1.37702e-05 2.94597e-05 2.93862e-05  -1.69343e-05 2.23328e-05 2.93862e-05  -3.26898e-05 3.65279e-05 2.93862e-05  3.69351e-05 -8.13503e-06 2.93862e-05  1.43817e-05 1.14688e-05 2.93862e-05  -8.56956e-07 1.41398e-05 2.93862e-05  -8.85889e-06 9.78754e-06 2.93862e-05  -2.31172e-05 1.91275e-05 2.93862e-05  3.1288e-05 -1.46035e-05 2.93862e-05  1.49746e-05 -2.5406e-06 2.93862e-05  -2.12863e-06 -1.8858e-06 2.93862e-05  -1.07991e-05 6.99005e-07 2.93862e-05  -2.56594e-05 1.32147e-05 2.93862e-05  2.58375e-05 -1.90124e-05 2.93862e-05  1.1511e-05 -1.0067e-05 2.93862e-05  -4.49833e-07 -1.19013e-05 2.93862e-05  -1.04012e-05 -1.01043e-05 2.93862e-05  -2.8097e-05 5.0318e-06 2.93862e-05  3.99913e-05 -3.52925e-05 2.93862e-05  2.08198e-05 -2.41658e-05 2.93862e-05  1.186e-05 -2.72193e-05 2.93862e-05  4.45831e-06 -2.86771e-05 2.93862e-05  -1.16922e-05 -1.28141e-05 2.93862e-05  
            </DataArray>
         </PointData> 
      </Piece>
   </UnstructuredGrid> 
</VTKFile>
