<?xml version="1.0"?>
<VTKFile type="UnstructuredGrid" version="0.1" byte_order="LittleEndian">
   <UnstructuredGrid>
      <Piece NumberOfPoints="25" NumberOfCells="0" > 
         <Points> 
            <DataArray type="Float64" Name="Position" NumberOfComponents="3" format="ascii"> 
               0  0  20  
               0.75  0  20  
               1.5  0  20  
               2.25  0  20  
               3  0  20  
               0  0.75  20  
               0.75  0.75  20  
               1.5  0.75  20  
               2.25  0.75  20  
               3  0.75  20  
               0  1.5  20  
               0.75  1.5  20  
               1.5  1.5  20  
               2.25  1.5  20  
               3  1.5  20  
               0  2.25  20  
               0.75  2.25  20  
               1.5  2.25  20  
               2.25  2.25  20  
               3  2.25  20  
               0  3  20  
               0.75  3  20  
               1.5  3  20  
               2.25  3  20  
               3  3  20  
            </DataArray>
         </Points> 

         <Cells>
            <DataArray type="Int32" Name="connectivity" NumberOfComponents="1" format="ascii">
               
            </DataArray> 
            <DataArray type="Int32" Name="offsets" NumberOfComponents="1" format="ascii">
               
            </DataArray>
            <DataArray type="UInt8"  Name="types" NumberOfComponents="1" format="ascii">
               
            </DataArray>
         </Cells>
         <PointData Scalars="Rank " Vectors="Displacement Velocity Traction ">
            <DataArray type="UInt32" Name="Rank" NumberOfComponents="1" format="ascii">
               0 0 0 0 0 0 0 0 0 0 0 0 0 0 0 0 0 0 0 0 0 0 0 0 0 
            </DataArray>
            <DataArray type="Float64" Name="Displacement" NumberOfComponents="3" format="ascii">
               8.93027e-07 9.42349e-07 -4.35327e-06  1.11599e-07 1.4204e-06 -4.62551e-06  -7.52348e-07 1.42046e-06 -4.66657e-06  -6.94711e-07 1.17308e-06 -4.73085e-06  -9.4084e-07 1.98022e-06 -4.34135e-06  1.34523e-06 1.38627e-07 -4.6121e-06  5.9803e-07 6.31678e-07 -4.69955e-06  -3.10231e-07 8.81407e-07 -4.81338e-06  -7.03277e-07 7.66763e-07 -4.99308e-06  -1.0148e-06 1.28548e-06 -4.50253e-06  1.36135e-06 -7.11176e-07 -4.64889e-06  8.61271e-07 -2.71066e-07 -4.81741e-06  -6.61436e-08 -6.12057e-08 -4.74855e-06  -8.53951e-07 2.06826e-07 -4.84849e-06  -1.27119e-06 7.14744e-07 -4.59511e-06  1.12278e-06 -6.90025e-07 -4.70422e-06  7.43418e-07 -7.01072e-07 -4.99439e-06  2.20071e-07 -8.62117e-07 -4.84312e-06  -5.79162e-07 -5.89104e-07 -4.75694e-06  -1.30538e-06 -1.57077e-07 -4.58961e-06  1.93309e-06 -9.5572e-07 -4.33176e-06  1.26906e-06 -1.03224e-06 -4.52429e-06  7.28672e-07 -1.31594e-06 -4.61589e-06  -1.80514e-07 -1.36472e-06 -4.60594e-06  -9.96412e-07 -9.85438e-07 -4.30476e-06  
            </DataArray>
            <DataArray type="Float64" Name="Velocity" NumberOfComponents="3" format="ascii">
               -3.75702e-07 -2.96638e-07 1.25007e-07  3.49186e-07 -9.8892e-07 -5.66971e-07  2.68927e-07 -1.42065e-06 -1.07605e-06  1.5243e-07 -7.56209e-07 -9.05698e-07  8.66473e-07 -4.76363e-07 1.23833e-07  -1.13516e-06 3.95481e-07 -5.28104e-07  -1.10377e-07 -4.63172e-08 -1.6151e-06  -1.78399e-07 -2.68045e-07 -2.31535e-06  -1.34536e-07 1.40236e-07 -1.87643e-06  8.94587e-07 4.97425e-08 -7.14537e-07  -1.50858e-06 3.34202e-07 -1.04562e-06  -3.11373e-07 -1.31203e-07 -2.32451e-06  -1.80022e-07 -1.5572e-07 -3.0917e-06  1.02316e-07 2.31666e-08 -2.33373e-06  1.41808e-06 -3.11166e-07 -9.89527e-07  -8.11011e-07 1.69803e-07 -8.71781e-07  9.9823e-08 -1.10952e-07 -1.87764e-06  1.12831e-08 1.22215e-07 -2.33585e-06  9.80104e-09 3.44003e-08 -1.652e-06  1.01152e-06 -3.56174e-07 -5.39139e-07  -5.51105e-07 8.5422e-07 1.34156e-07  -1.19299e-09 8.91329e-07 -7.36912e-07  -3.43708e-07 1.40999e-06 -1.01e-06  -4.27369e-07 1.0254e-06 -5.40222e-07  2.2599e-07 3.11324e-07 1.65499e-07  
            </DataArray>
            <DataArray type="Float64" Name="Traction" NumberOfComponents="3" format="ascii">
               0 0 0  0 0 0  0 0 0  0 0 0  0 0 0  0 0 0  0 0 0  0 0 0  0 0 0  0 0 0  0 0 0  0 0 0  0 0 0  0 0 0  0 0 0  0 0 0  0 0 0  0 0 0  0 0 0  0 0 0  0 0 0  0 0 0  0 0 0  0 0 0  0 0 0  
            </DataArray>
         </PointData> 
      </Piece>
   </UnstructuredGrid> 
</VTKFile>
