<?xml version="1.0"?>
<VTKFile type="UnstructuredGrid" version="0.1" byte_order="LittleEndian">
   <UnstructuredGrid>
      <Piece NumberOfPoints="25" NumberOfCells="0" > 
         <Points> 
            <DataArray type="Float64" Name="Position" NumberOfComponents="3" format="ascii"> 
               0  0  15  
               0.75  0  15  
               1.5  0  15  
               2.25  0  15  
               3  0  15  
               0  0.75  15  
               0.75  0.75  15  
               1.5  0.75  15  
               2.25  0.75  15  
               3  0.75  15  
               0  1.5  15  
               0.75  1.5  15  
               1.5  1.5  15  
               2.25  1.5  15  
               3  1.5  15  
               0  2.25  15  
               0.75  2.25  15  
               1.5  2.25  15  
               2.25  2.25  15  
               3  2.25  15  
               0  3  15  
               0.75  3  15  
               1.5  3  15  
               2.25  3  15  
               3  3  15  
            </DataArray>
         </Points> 

         <Cells>
            <DataArray type="Int32" Name="connectivity" NumberOfComponents="1" format="ascii">
               
            </DataArray> 
            <DataArray type="Int32" Name="offsets" NumberOfComponents="1" format="ascii">
               
            </DataArray>
            <DataArray type="UInt8"  Name="types" NumberOfComponents="1" format="ascii">
               
            </DataArray>
         </Cells>
         <PointData Scalars="Rank " Vectors="Displacement Velocity Traction ">
            <DataArray type="UInt32" Name="Rank" NumberOfComponents="1" format="ascii">
               0 0 0 0 0 0 0 0 0 0 0 0 0 0 0 0 0 0 0 0 0 0 0 0 0 
            </DataArray>
            <DataArray type="Float64" Name="Displacement" NumberOfComponents="3" format="ascii">
               0.00180762 0.00205856 -0.00457846  0.00164411 0.000179614 -0.00456365  0.0011694 -0.000478484 -0.00440599  0.000650592 -0.000493537 -0.00459555  0.000438076 -0.00154641 -0.00461031  -0.000145553 0.00189385 -0.00455244  -0.00019061 0.000129449 -0.00419563  -0.000563697 -0.000332489 -0.00390175  -0.000907783 -0.000509789 -0.00435742  -0.000902747 -0.0018053 -0.00450444  -0.000783739 0.00142471 -0.00439109  -0.000635861 -0.000259123 -0.00390054  -0.000863387 -0.000570312 -0.00334143  -0.00108869 -0.00087696 -0.00392393  -0.000936032 -0.00237882 -0.00439772  -0.000829673 0.000909151 -0.00458091  -0.000839649 -0.00061516 -0.00435714  -0.00119416 -0.000799759 -0.00392331  -0.00156565 -0.00125742 -0.00423659  -0.00161294 -0.00285358 -0.00456076  -0.0019237 0.000694807 -0.00457649  -0.00217371 -0.000615416 -0.00449069  -0.0027304 -0.000651081 -0.00438315  -0.00319168 -0.00131022 -0.00454727  -0.00334477 -0.00301093 -0.00455501  
            </DataArray>
            <DataArray type="Float64" Name="Velocity" NumberOfComponents="3" format="ascii">
               0.000341425 0.00050122 -0.00490606  0.00025621 4.98129e-05 -0.00481466  0.000136996 -0.000160273 -0.00461942  4.51408e-05 -0.000204256 -0.00484169  -2.113e-05 -0.000411497 -0.00490539  -9.46904e-05 0.000414471 -0.0048176  -0.000168631 -2.61755e-05 -0.0043414  -0.000313039 -0.000178464 -0.00395525  -0.000428146 -0.000255344 -0.00449234  -0.000459531 -0.000535238 -0.00475291  -0.000293792 0.000289266 -0.00461571  -0.000308993 -0.000173522 -0.00395236  -0.000392683 -0.000263625 -0.0032615  -0.000485458 -0.000364924 -0.00398127  -0.000493648 -0.000719612 -0.00460768  -0.000341069 0.000191411 -0.00483251  -0.00039141 -0.000289465 -0.00448745  -0.000504061 -0.000354553 -0.00397888  -0.000640215 -0.000494724 -0.00438643  -0.000710798 -0.000881644 -0.00480779  -0.00056099 0.000123295 -0.00488997  -0.000685651 -0.000318442 -0.00474565  -0.000874562 -0.000357179 -0.00460285  -0.00104299 -0.00055951 -0.00480714  -0.00113816 -0.000973266 -0.00486769  
            </DataArray>
            <DataArray type="Float64" Name="Traction" NumberOfComponents="3" format="ascii">
               0.0385719 0.0397888 -0.0942857  0.0104245 0.0454425 -0.0942857  -0.00995974 0.0465861 -0.0942857  -0.0319405 0.0469773 -0.0942857  -0.0576409 0.0500947 -0.0942857  0.0458855 0.01196 -0.0942857  0.0177984 0.0190837 -0.0942857  -0.000389814 0.0190661 -0.0942857  -0.0242028 0.0194808 -0.0942857  -0.0511198 0.0257854 -0.0942857  0.0471615 -0.00878769 -0.0942857  0.0173555 0.000702332 -0.0942857  -0.00029396 0.000938063 -0.0942857  -0.0239366 -0.000383498 -0.0942857  -0.0503971 0.00630877 -0.0942857  0.0474786 -0.0312808 -0.0942857  0.0184741 -0.0234502 -0.0942857  -0.00133437 -0.0230414 -0.0942857  -0.0241965 -0.0234236 -0.0942857  -0.0461456 -0.0176384 -0.0942857  0.05093 -0.0580279 -0.0942857  0.0252883 -0.050331 -0.0942857  0.00581456 -0.0489555 -0.0942857  -0.01813 -0.0454725 -0.0942857  -0.0370298 -0.0364742 -0.0942857  
            </DataArray>
         </PointData> 
      </Piece>
   </UnstructuredGrid> 
</VTKFile>
