<?xml version="1.0"?>
<VTKFile type="UnstructuredGrid" version="0.1" byte_order="LittleEndian">
   <UnstructuredGrid>
      <Piece NumberOfPoints="25" NumberOfCells="0" > 
         <Points> 
            <DataArray type="Float64" Name="Position" NumberOfComponents="3" format="ascii"> 
               0  0  20  
               0.75  0  20  
               1.5  0  20  
               2.25  0  20  
               3  0  20  
               0  0.75  20  
               0.75  0.75  20  
               1.5  0.75  20  
               2.25  0.75  20  
               3  0.75  20  
               0  1.5  20  
               0.75  1.5  20  
               1.5  1.5  20  
               2.25  1.5  20  
               3  1.5  20  
               0  2.25  20  
               0.75  2.25  20  
               1.5  2.25  20  
               2.25  2.25  20  
               3  2.25  20  
               0  3  20  
               0.75  3  20  
               1.5  3  20  
               2.25  3  20  
               3  3  20  
            </DataArray>
         </Points> 

         <Cells>
            <DataArray type="Int32" Name="connectivity" NumberOfComponents="1" format="ascii">
               
            </DataArray> 
            <DataArray type="Int32" Name="offsets" NumberOfComponents="1" format="ascii">
               
            </DataArray>
            <DataArray type="UInt8"  Name="types" NumberOfComponents="1" format="ascii">
               
            </DataArray>
         </Cells>
         <PointData Scalars="Rank " Vectors="Displacement Velocity Traction ">
            <DataArray type="UInt32" Name="Rank" NumberOfComponents="1" format="ascii">
               0 0 0 0 0 0 0 0 0 0 0 0 0 0 0 0 0 0 0 0 0 0 0 0 0 
            </DataArray>
            <DataArray type="Float64" Name="Displacement" NumberOfComponents="3" format="ascii">
               9.30901e-07 9.5541e-07 -4.11826e-06  1.32651e-08 1.59117e-06 -4.18046e-06  -7.57063e-07 1.7223e-06 -4.0738e-06  -6.7252e-07 1.30225e-06 -4.1874e-06  -1.10138e-06 1.95815e-06 -4.11112e-06  1.5584e-06 2.66151e-08 -4.17695e-06  5.80886e-07 5.96627e-07 -3.95469e-06  -2.37681e-07 8.8907e-07 -3.85635e-06  -6.11977e-07 6.66259e-07 -4.15556e-06  -1.19544e-06 1.16609e-06 -4.0311e-06  1.68927e-06 -7.34976e-07 -4.06471e-06  8.80436e-07 -2.13182e-07 -3.85783e-06  -1.34338e-08 -1.38193e-08 -3.56768e-06  -8.21408e-07 1.82512e-07 -3.884e-06  -1.58762e-06 7.34285e-07 -4.03312e-06  1.26939e-06 -6.71772e-07 -4.17143e-06  6.54088e-07 -6.14986e-07 -4.15661e-06  1.95929e-07 -8.31899e-07 -3.87912e-06  -5.41153e-07 -5.53651e-07 -3.99736e-06  -1.49558e-06 -5.41821e-08 -4.15591e-06  1.9329e-06 -1.11138e-06 -4.10432e-06  1.16169e-06 -1.20891e-06 -4.04479e-06  7.52794e-07 -1.62365e-06 -4.04642e-06  -6.02555e-08 -1.55037e-06 -4.16914e-06  -9.9062e-07 -9.99636e-07 -4.08876e-06  
            </DataArray>
            <DataArray type="Float64" Name="Velocity" NumberOfComponents="3" format="ascii">
               1.46203e-07 2.02692e-07 -1.3798e-06  1.92854e-07 2.09552e-08 -1.8416e-06  -2.22684e-07 -2.59744e-07 -2.14074e-06  -2.53838e-07 2.33453e-08 -2.04362e-06  4.56296e-08 5.54938e-07 -1.35404e-06  -6.71628e-08 2.21815e-07 -1.8246e-06  1.90556e-07 2.26302e-07 -2.44193e-06  -2.15318e-07 2.09183e-07 -2.90113e-06  -3.52794e-07 3.94535e-07 -2.68562e-06  1.16701e-07 5.79594e-07 -1.84478e-06  -3.16862e-07 -1.81884e-07 -2.12291e-06  1.87557e-07 -1.81029e-07 -2.90609e-06  -1.10805e-07 -1.03871e-07 -3.35259e-06  -2.68279e-07 1.057e-07 -2.92345e-06  3.36477e-07 1.84435e-07 -2.06161e-06  -1.90656e-08 -2.48346e-07 -2.01852e-06  3.71828e-07 -3.46338e-07 -2.68606e-06  1.13838e-07 -2.72349e-07 -2.91935e-06  -2.10509e-07 -2.169e-07 -2.48475e-06  5.63351e-08 -2.10344e-07 -1.80941e-06  5.07362e-07 3.22797e-08 -1.34772e-06  5.60953e-07 1.00836e-07 -1.86581e-06  1.8795e-07 3.0121e-07 -2.08118e-06  -2.38194e-07 2.23719e-08 -1.82304e-06  -2.39841e-07 -2.11292e-07 -1.32137e-06  
            </DataArray>
            <DataArray type="Float64" Name="Traction" NumberOfComponents="3" format="ascii">
               -6.43596e-06 -5.71132e-06 -1.91658e-05  -2.1169e-06 -1.02121e-05 -1.91658e-05  3.70004e-06 -1.04668e-05 -1.91658e-05  2.62437e-06 -6.70214e-06 -1.91658e-05  4.16911e-06 -1.08944e-05 -1.91658e-05  -1.02004e-05 -1.1974e-06 -1.91658e-05  -4.16136e-06 -4.00532e-06 -1.91658e-05  3.76342e-06 -6.22448e-06 -1.91658e-05  3.77618e-06 -4.38091e-06 -1.91658e-05  4.97003e-06 -5.95604e-06 -1.91658e-05  -1.08799e-05 4.36899e-06 -1.91658e-05  -6.61424e-06 3.74715e-06 -1.91658e-05  2.0874e-06 2.13604e-06 -1.91658e-05  6.27876e-06 -6.3031e-07 -1.91658e-05  1.00564e-05 -2.20567e-06 -1.91658e-05  -6.78724e-06 3.24608e-06 -1.91658e-05  -4.59799e-06 3.8209e-06 -1.91658e-05  -8.2685e-07 6.2133e-06 -1.91658e-05  3.4087e-06 3.68361e-06 -1.91658e-05  9.05685e-06 9.59057e-07 -1.91658e-05  -1.02275e-05 4.92152e-06 -1.91658e-05  -5.54172e-06 5.09058e-06 -1.91658e-05  -1.79786e-06 1.01039e-05 -1.91658e-05  1.53767e-06 9.74092e-06 -1.91658e-05  5.42305e-06 5.14081e-06 -1.91658e-05  
            </DataArray>
         </PointData> 
      </Piece>
   </UnstructuredGrid> 
</VTKFile>
