<?xml version="1.0"?>
<VTKFile type="UnstructuredGrid" version="0.1" byte_order="LittleEndian">
   <UnstructuredGrid>
      <Piece NumberOfPoints="25" NumberOfCells="0" > 
         <Points> 
            <DataArray type="Float64" Name="Position" NumberOfComponents="3" format="ascii"> 
               0  0  15  
               0.75  0  15  
               1.5  0  15  
               2.25  0  15  
               3  0  15  
               0  0.75  15  
               0.75  0.75  15  
               1.5  0.75  15  
               2.25  0.75  15  
               3  0.75  15  
               0  1.5  15  
               0.75  1.5  15  
               1.5  1.5  15  
               2.25  1.5  15  
               3  1.5  15  
               0  2.25  15  
               0.75  2.25  15  
               1.5  2.25  15  
               2.25  2.25  15  
               3  2.25  15  
               0  3  15  
               0.75  3  15  
               1.5  3  15  
               2.25  3  15  
               3  3  15  
            </DataArray>
         </Points> 

         <Cells>
            <DataArray type="Int32" Name="connectivity" NumberOfComponents="1" format="ascii">
               
            </DataArray> 
            <DataArray type="Int32" Name="offsets" NumberOfComponents="1" format="ascii">
               
            </DataArray>
            <DataArray type="UInt8"  Name="types" NumberOfComponents="1" format="ascii">
               
            </DataArray>
         </Cells>
         <PointData Scalars="Rank " Vectors="Displacement Velocity Traction ">
            <DataArray type="UInt32" Name="Rank" NumberOfComponents="1" format="ascii">
               0 0 0 0 0 0 0 0 0 0 0 0 0 0 0 0 0 0 0 0 0 0 0 0 0 
            </DataArray>
            <DataArray type="Float64" Name="Displacement" NumberOfComponents="3" format="ascii">
               0.000104724 4.68626e-05 2.53207e-06  0.000103666 8.87728e-06 1.71114e-06  9.52482e-05 1.05841e-05 1.17872e-06  8.53334e-05 1.07466e-05 1.25601e-06  8.29413e-05 -5.69662e-06 2.44474e-06  3.78488e-05 4.67748e-05 1.79506e-06  3.91466e-05 1.03439e-05 2.18743e-07  4.12909e-05 9.40469e-06 -1.77807e-07  4.42739e-05 8.03098e-06 3.09737e-07  4.69636e-05 -8.94518e-06 1.03501e-06  3.36626e-05 4.24353e-05 1.33982e-06  3.24676e-05 1.01064e-05 -1.55624e-07  2.4877e-05 -3.63286e-07 -1.00547e-06  1.90829e-05 1.45039e-06 -2.0025e-07  1.8945e-05 -1.65842e-05 9.2954e-07  2.20631e-05 3.57412e-05 1.4305e-06  2.25349e-05 7.77514e-06 3.02223e-07  2.36384e-05 -9.24673e-06 -2.1301e-07  2.64313e-05 -2.30029e-06 2.69905e-07  2.67311e-05 -1.70589e-05 1.36953e-06  5.13996e-07 3.36638e-05 2.70617e-06  -4.31602e-08 5.73224e-06 1.09339e-06  -1.72898e-06 -1.43562e-05 1.09766e-06  3.12193e-06 -5.65327e-06 1.62647e-06  7.9729e-06 -1.34544e-05 2.00828e-06  
            </DataArray>
            <DataArray type="Float64" Name="Velocity" NumberOfComponents="3" format="ascii">
               9.05214e-05 5.51754e-05 4.95527e-07  8.82442e-05 1.60987e-05 1.78737e-06  7.9363e-05 1.38216e-05 2.70592e-06  6.95412e-05 4.86042e-06 2.37507e-06  6.6506e-05 -1.96635e-05 5.14547e-07  3.75981e-05 5.42774e-05 1.65518e-06  3.86075e-05 1.69895e-05 3.57933e-06  3.93519e-05 1.30705e-05 5.26526e-06  4.17646e-05 2.4521e-06 4.40456e-06  4.44214e-05 -2.2442e-05 1.73265e-06  2.57896e-05 4.69517e-05 2.72008e-06  2.7446e-05 1.38492e-05 5.32534e-06  2.33679e-05 3.25231e-06 6.91859e-06  2.12805e-05 -5.74026e-06 5.25549e-06  2.4109e-05 -3.05936e-05 2.19745e-06  1.16923e-05 3.77671e-05 2.47075e-06  1.3242e-05 9.29098e-06 4.43339e-06  1.37499e-05 -5.14568e-06 5.29637e-06  1.47381e-05 -1.19507e-05 3.7246e-06  1.58191e-05 -3.58676e-05 1.32693e-06  -1.61077e-06 3.4976e-05 7.38476e-07  -2.63313e-06 7.13891e-06 1.82398e-06  -5.12033e-06 -8.23721e-06 2.43584e-06  -4.64935e-06 -1.4479e-05 1.55802e-06  -3.11791e-06 -3.5549e-05 -1.43065e-07  
            </DataArray>
            <DataArray type="Float64" Name="Traction" NumberOfComponents="3" format="ascii">
               0.00134191 0.00117907 -5.36938e-05  -0.000352524 0.00115873 -5.36938e-05  -1.96793e-05 0.00125582 -5.36938e-05  0.000217087 0.00144589 -5.36938e-05  -0.00165193 0.00133769 -5.36938e-05  0.0017475 -0.000412007 -5.36938e-05  0.000128192 0.000170315 -5.36938e-05  0.000137781 0.000625227 -5.36938e-05  0.000313312 0.000191134 -5.36938e-05  -0.00128031 -0.000117118 -5.36938e-05  0.00180747 -0.000127931 -5.36938e-05  0.00032595 8.80145e-05 -5.36938e-05  0.000113368 6.48179e-05 -5.36938e-05  4.69714e-05 -4.3241e-05 -5.36938e-05  -0.00168014 1.02991e-05 -5.36938e-05  0.0017644 0.000155092 -5.36938e-05  -1.28091e-05 4.33259e-05 -5.36938e-05  -3.47021e-06 -0.000438748 -5.36938e-05  7.53288e-05 -0.00033174 -5.36938e-05  -0.000370963 -0.000342731 -5.36938e-05  0.0017013 -0.00191743 -5.36938e-05  -0.000181829 -0.00135186 -5.36938e-05  0.000171744 -0.00157423 -5.36938e-05  -2.22837e-05 -0.000655104 -5.36938e-05  0.000868021 0.00064706 -5.36938e-05  
            </DataArray>
         </PointData> 
      </Piece>
   </UnstructuredGrid> 
</VTKFile>
