<?xml version="1.0"?>
<VTKFile type="UnstructuredGrid" version="0.1" byte_order="LittleEndian">
   <UnstructuredGrid>
      <Piece NumberOfPoints="25" NumberOfCells="0" > 
         <Points> 
            <DataArray type="Float64" Name="Position" NumberOfComponents="3" format="ascii"> 
               0  0  20  
               0.75  0  20  
               1.5  0  20  
               2.25  0  20  
               3  0  20  
               0  0.75  20  
               0.75  0.75  20  
               1.5  0.75  20  
               2.25  0.75  20  
               3  0.75  20  
               0  1.5  20  
               0.75  1.5  20  
               1.5  1.5  20  
               2.25  1.5  20  
               3  1.5  20  
               0  2.25  20  
               0.75  2.25  20  
               1.5  2.25  20  
               2.25  2.25  20  
               3  2.25  20  
               0  3  20  
               0.75  3  20  
               1.5  3  20  
               2.25  3  20  
               3  3  20  
            </DataArray>
         </Points> 

         <Cells>
            <DataArray type="Int32" Name="connectivity" NumberOfComponents="1" format="ascii">
               
            </DataArray> 
            <DataArray type="Int32" Name="offsets" NumberOfComponents="1" format="ascii">
               
            </DataArray>
            <DataArray type="UInt8"  Name="types" NumberOfComponents="1" format="ascii">
               
            </DataArray>
         </Cells>
         <PointData Scalars="Rank " Vectors="Displacement Velocity Traction ">
            <DataArray type="UInt32" Name="Rank" NumberOfComponents="1" format="ascii">
               0 0 0 0 0 0 0 0 0 0 0 0 0 0 0 0 0 0 0 0 0 0 0 0 0 
            </DataArray>
            <DataArray type="Float64" Name="Displacement" NumberOfComponents="3" format="ascii">
               0.0429801 0.0429486 -0.161629  0.000154302 0.0764589 -0.148058  -0.00557311 0.106018 -0.136906  -0.00515104 0.0741233 -0.154913  -0.0479237 0.0544775 -0.169383  0.0764991 0.000128473 -0.148075  0.0141047 0.014074 -0.118011  -0.00157775 0.0237184 -0.0826489  -0.0129444 0.0130123 -0.116883  -0.0736181 0.00963148 -0.154594  0.106048 -0.00560444 -0.136911  0.0237462 -0.00160437 -0.0826446  0.000845512 0.000819931 -0.0256228  -0.0225435 0.00157813 -0.0827146  -0.105002 0.0060024 -0.136766  0.0741381 -0.0051863 -0.154904  0.0130304 -0.0129732 -0.116871  0.00159878 -0.0225676 -0.0827093  -0.0135695 -0.0135908 -0.118342  -0.0759972 -0.000686178 -0.147957  0.0544925 -0.0479477 -0.169382  0.00965097 -0.0736457 -0.15459  0.00601852 -0.105027 -0.136768  -0.000669599 -0.0760166 -0.147965  -0.0430085 -0.0430268 -0.161468  
            </DataArray>
            <DataArray type="Float64" Name="Velocity" NumberOfComponents="3" format="ascii">
               0.367816 0.367788 -1.43054  -0.00971068 0.687676 -1.2964  -0.0196478 1.00612 -1.21096  -0.00414678 0.691434 -1.43399  -0.423332 0.44323 -1.58922  0.687732 -0.00972154 -1.29642  0.11385 0.113814 -1.0571  -0.00910778 0.180883 -0.682679  -0.102527 0.101651 -1.01979  -0.689406 0.0191558 -1.43531  1.00617 -0.0196699 -1.21096  0.180931 -0.00913839 -0.68269  0.00524272 0.00520284 -0.0711739  -0.176281 0.00981807 -0.681628  -1.00223 0.0226999 -1.20916  0.691486 -0.004215 -1.43396  0.10169 -0.102569 -1.01978  0.00985365 -0.176312 -0.681623  -0.112145 -0.112184 -1.0583  -0.687015 0.00677207 -1.29594  0.443285 -0.423407 -1.58923  0.0192059 -0.689462 -1.43531  0.0227226 -1.00227 -1.20915  0.00675961 -0.687057 -1.29592  -0.367741 -0.367721 -1.43176  
            </DataArray>
            <DataArray type="Float64" Name="Traction" NumberOfComponents="3" format="ascii">
               0 0 0  0 0 0  0 0 0  0 0 0  0 0 0  0 0 0  0 0 0  0 0 0  0 0 0  0 0 0  0 0 0  0 0 0  0 0 0  0 0 0  0 0 0  0 0 0  0 0 0  0 0 0  0 0 0  0 0 0  0 0 0  0 0 0  0 0 0  0 0 0  0 0 0  
            </DataArray>
         </PointData> 
      </Piece>
   </UnstructuredGrid> 
</VTKFile>
