<?xml version="1.0"?>
<VTKFile type="UnstructuredGrid" version="0.1" byte_order="LittleEndian">
   <UnstructuredGrid>
      <Piece NumberOfPoints="25" NumberOfCells="0" > 
         <Points> 
            <DataArray type="Float64" Name="Position" NumberOfComponents="3" format="ascii"> 
               0  0  15  
               0.75  0  15  
               1.5  0  15  
               2.25  0  15  
               3  0  15  
               0  0.75  15  
               0.75  0.75  15  
               1.5  0.75  15  
               2.25  0.75  15  
               3  0.75  15  
               0  1.5  15  
               0.75  1.5  15  
               1.5  1.5  15  
               2.25  1.5  15  
               3  1.5  15  
               0  2.25  15  
               0.75  2.25  15  
               1.5  2.25  15  
               2.25  2.25  15  
               3  2.25  15  
               0  3  15  
               0.75  3  15  
               1.5  3  15  
               2.25  3  15  
               3  3  15  
            </DataArray>
         </Points> 

         <Cells>
            <DataArray type="Int32" Name="connectivity" NumberOfComponents="1" format="ascii">
               
            </DataArray> 
            <DataArray type="Int32" Name="offsets" NumberOfComponents="1" format="ascii">
               
            </DataArray>
            <DataArray type="UInt8"  Name="types" NumberOfComponents="1" format="ascii">
               
            </DataArray>
         </Cells>
         <PointData Scalars="Rank " Vectors="Displacement Velocity Traction ">
            <DataArray type="UInt32" Name="Rank" NumberOfComponents="1" format="ascii">
               0 0 0 0 0 0 0 0 0 0 0 0 0 0 0 0 0 0 0 0 0 0 0 0 0 
            </DataArray>
            <DataArray type="Float64" Name="Displacement" NumberOfComponents="3" format="ascii">
               0.00186762 0.0021502 -0.00572042  0.0016854 0.00019252 -0.00567854  0.00118913 -0.000504561 -0.00547196  0.000656368 -0.000531803 -0.00571556  0.00043069 -0.00161871 -0.00575066  -0.000160936 0.00196649 -0.00566834  -0.000224042 0.000123949 -0.0051921  -0.00062649 -0.00036642 -0.00480131  -0.000993398 -0.000561187 -0.00538721  -0.0009969 -0.00190419 -0.00560439  -0.000836073 0.00147457 -0.00545671  -0.000695474 -0.000294539 -0.00479948  -0.000940802 -0.000622303 -0.0040703  -0.00118608 -0.000949934 -0.00482936  -0.00103886 -0.00251351 -0.0054607  -0.000894801 0.000943852 -0.00569931  -0.000917748 -0.000673594 -0.00538583  -0.00129445 -0.000871403 -0.00482822  -0.00169337 -0.00135659 -0.00524317  -0.00175767 -0.00302024 -0.00567357  -0.0020251 0.000715994 -0.00571444  -0.00230193 -0.000681903 -0.00558942  -0.00289541 -0.000727063 -0.00544551  -0.00338999 -0.00142527 -0.00566035  -0.00356412 -0.00319792 -0.00568751  
            </DataArray>
            <DataArray type="Float64" Name="Velocity" NumberOfComponents="3" format="ascii">
               0.000257813 0.000414128 -0.00655017  0.000154446 8.13693e-05 -0.00636724  5.85889e-05 -9.90808e-05 -0.00607026  1.21182e-05 -0.000177987 -0.00639096  -5.42487e-05 -0.00030711 -0.00653486  -5.71054e-05 0.000309488 -0.00637429  -0.000165954 -2.91052e-05 -0.00564923  -0.000315477 -0.000160193 -0.00506036  -0.000426827 -0.000258879 -0.00583116  -0.000481088 -0.000450731 -0.00627926  -0.000228062 0.000207541 -0.00607032  -0.000286413 -0.000181183 -0.00505716  -0.000380384 -0.000255253 -0.00403873  -0.000487202 -0.000363108 -0.00509305  -0.000534008 -0.000623816 -0.00605213  -0.000309644 0.000154969 -0.00638407  -0.000389839 -0.000293581 -0.00582514  -0.000497177 -0.000360548 -0.00509022  -0.00063559 -0.000495475 -0.00570522  -0.00073768 -0.000781322 -0.00635325  -0.000448844 8.68987e-05 -0.00652628  -0.000593748 -0.000345491 -0.00627444  -0.000772294 -0.000401958 -0.00605077  -0.000936729 -0.000592056 -0.00635656  -0.00105357 -0.000894764 -0.00649394  
            </DataArray>
            <DataArray type="Float64" Name="Traction" NumberOfComponents="3" format="ascii">
               0.0401834 0.0413985 -0.0904883  0.0111786 0.0466435 -0.0904883  -0.0102243 0.0473838 -0.0904883  -0.0338513 0.0483555 -0.0904883  -0.0601044 0.0517621 -0.0904883  0.0470412 0.012704 -0.0904883  0.0185666 0.0198314 -0.0904883  0.000228091 0.0194536 -0.0904883  -0.0253014 0.0203256 -0.0904883  -0.0528516 0.0271347 -0.0904883  0.0479632 -0.00905953 -0.0904883  0.0177896 0.00128681 -0.0904883  0.00053087 0.00173666 -0.0904883  -0.0244794 0.000101341 -0.0904883  -0.0512843 0.00691242 -0.0904883  0.0489034 -0.0332072 -0.0904883  0.0193979 -0.0245668 -0.0904883  -0.00081396 -0.0235788 -0.0904883  -0.0250278 -0.0242269 -0.0904883  -0.0474425 -0.0184127 -0.0904883  0.052681 -0.0604737 -0.0904883  0.0267461 -0.0520782 -0.0904883  0.00644004 -0.0498642 -0.0904883  -0.0189678 -0.0467213 -0.0904883  -0.0387829 -0.0381456 -0.0904883  
            </DataArray>
         </PointData> 
      </Piece>
   </UnstructuredGrid> 
</VTKFile>
