<?xml version="1.0"?>
<VTKFile type="UnstructuredGrid" version="0.1" byte_order="LittleEndian">
   <UnstructuredGrid>
      <Piece NumberOfPoints="25" NumberOfCells="0" > 
         <Points> 
            <DataArray type="Float64" Name="Position" NumberOfComponents="3" format="ascii"> 
               0  0  20  
               0.75  0  20  
               1.5  0  20  
               2.25  0  20  
               3  0  20  
               0  0.75  20  
               0.75  0.75  20  
               1.5  0.75  20  
               2.25  0.75  20  
               3  0.75  20  
               0  1.5  20  
               0.75  1.5  20  
               1.5  1.5  20  
               2.25  1.5  20  
               3  1.5  20  
               0  2.25  20  
               0.75  2.25  20  
               1.5  2.25  20  
               2.25  2.25  20  
               3  2.25  20  
               0  3  20  
               0.75  3  20  
               1.5  3  20  
               2.25  3  20  
               3  3  20  
            </DataArray>
         </Points> 

         <Cells>
            <DataArray type="Int32" Name="connectivity" NumberOfComponents="1" format="ascii">
               
            </DataArray> 
            <DataArray type="Int32" Name="offsets" NumberOfComponents="1" format="ascii">
               
            </DataArray>
            <DataArray type="UInt8"  Name="types" NumberOfComponents="1" format="ascii">
               
            </DataArray>
         </Cells>
         <PointData Scalars="Rank " Vectors="Displacement Velocity Traction ">
            <DataArray type="UInt32" Name="Rank" NumberOfComponents="1" format="ascii">
               0 0 0 0 0 0 0 0 0 0 0 0 0 0 0 0 0 0 0 0 0 0 0 0 0 
            </DataArray>
            <DataArray type="Float64" Name="Displacement" NumberOfComponents="3" format="ascii">
               -2.25646e-06 -2.63228e-06 7.66196e-07  4.01979e-07 -2.93945e-06 7.47008e-07  2.08573e-06 -1.58579e-06 8.52467e-07  2.36073e-06 -1.76355e-06 6.78026e-07  2.95587e-06 -3.86079e-06 6.52083e-07  -2.78673e-06 -4.25452e-08 7.45206e-07  -1.21867e-06 -1.46506e-06 6.13372e-07  4.56236e-07 -1.56899e-06 1.30417e-06  1.588e-06 -1.58899e-06 1.07541e-06  1.8271e-06 -2.50886e-06 1.89337e-07  -1.47923e-06 1.74669e-06 9.83334e-07  -1.39753e-06 2.03685e-07 1.35328e-06  1.94171e-07 7.34617e-08 1.73214e-06  1.25014e-06 -2.70776e-08 1.26839e-06  1.03359e-06 -1.18055e-06 3.70574e-07  -1.87406e-06 2.13443e-06 8.76263e-07  -1.59043e-06 1.51021e-06 1.09243e-06  -3.13534e-08 1.45812e-06 1.28134e-06  1.10093e-06 1.44676e-06 7.2775e-07  1.94564e-06 3.09583e-07 2.16083e-07  -4.31253e-06 2.81262e-06 9.8511e-07  -2.93295e-06 1.90004e-06 2.86934e-07  -1.41911e-06 1.43079e-06 6.39751e-07  1.1306e-07 2.49875e-06 5.59207e-07  2.01173e-06 2.28085e-06 -2.81878e-08  
            </DataArray>
            <DataArray type="Float64" Name="Velocity" NumberOfComponents="3" format="ascii">
               2.58633e-06 1.90906e-06 -9.69895e-06  -7.60125e-07 5.80733e-06 -7.12147e-06  -1.24188e-06 8.46029e-06 -5.15509e-06  -3.74589e-07 5.19442e-06 -6.01127e-06  -4.2478e-06 4.19005e-06 -9.47567e-06  6.65133e-06 -1.51427e-06 -7.44773e-06  1.42043e-06 6.41928e-07 -2.68275e-06  6.48299e-07 2.01107e-06 5.88312e-07  3.93717e-07 1.25086e-07 -1.91302e-06  -4.81754e-06 8.23999e-07 -6.43842e-06  9.29575e-06 -2.06011e-06 -5.37106e-06  2.80042e-06 -1.7303e-08 6.42333e-07  1.2286e-06 6.11325e-07 4.72054e-06  -1.16733e-06 5.44828e-07 5.13077e-07  -8.17234e-06 2.50247e-06 -5.63408e-06  5.70352e-06 -1.09743e-06 -6.04205e-06  7.33114e-07 -7.04648e-08 -1.82151e-06  1.11787e-06 -1.4428e-06 6.02587e-07  -1.43499e-07 -4.21451e-07 -2.57075e-06  -6.029e-06 1.81782e-06 -7.46082e-06  4.3463e-06 -4.89212e-06 -9.52064e-06  1.06928e-06 -5.25379e-06 -6.43282e-06  2.84499e-06 -8.32393e-06 -5.4895e-06  2.2653e-06 -6.04504e-06 -7.39163e-06  -1.66443e-06 -2.11923e-06 -1.00337e-05  
            </DataArray>
            <DataArray type="Float64" Name="Traction" NumberOfComponents="3" format="ascii">
               6.92023e-07 2.06651e-07 -0.000106681  -1.41901e-05 2.01328e-05 -0.000106681  -1.75053e-05 3.42786e-06 -0.000106681  -1.44029e-05 4.27724e-06 -0.000106681  -1.70806e-05 3.19018e-05 -0.000106681  2.54887e-05 -1.52015e-05 -0.000106681  1.18226e-05 6.54519e-06 -0.000106681  2.93747e-06 3.29803e-06 -0.000106681  -9.73066e-07 5.26996e-06 -0.000106681  -4.96921e-08 2.23237e-05 -0.000106681  7.56127e-06 -2.0153e-05 -0.000106681  6.79318e-06 -9.10865e-07 -0.000106681  4.40611e-06 2.25454e-06 -0.000106681  3.2167e-06 4.79636e-06 -0.000106681  6.35663e-06 1.80686e-05 -0.000106681  1.27285e-05 -1.89877e-05 -0.000106681  1.08913e-05 -4.10722e-06 -0.000106681  6.13901e-06 -9.56848e-07 -0.000106681  -9.59205e-07 -3.45313e-06 -0.000106681  -5.96672e-06 1.06822e-05 -0.000106681  4.00292e-05 -2.26386e-05 -0.000106681  2.75306e-05 -2.80384e-06 -0.000106681  1.87776e-05 1.62106e-06 -0.000106681  1.14662e-05 -1.01051e-05 -0.000106681  1.55204e-06 -1.49786e-06 -0.000106681  
            </DataArray>
         </PointData> 
      </Piece>
   </UnstructuredGrid> 
</VTKFile>
