<?xml version="1.0"?>
<VTKFile type="UnstructuredGrid" version="0.1" byte_order="LittleEndian">
   <UnstructuredGrid>
      <Piece NumberOfPoints="25" NumberOfCells="0" > 
         <Points> 
            <DataArray type="Float64" Name="Position" NumberOfComponents="3" format="ascii"> 
               0  0  20  
               0.75  0  20  
               1.5  0  20  
               2.25  0  20  
               3  0  20  
               0  0.75  20  
               0.75  0.75  20  
               1.5  0.75  20  
               2.25  0.75  20  
               3  0.75  20  
               0  1.5  20  
               0.75  1.5  20  
               1.5  1.5  20  
               2.25  1.5  20  
               3  1.5  20  
               0  2.25  20  
               0.75  2.25  20  
               1.5  2.25  20  
               2.25  2.25  20  
               3  2.25  20  
               0  3  20  
               0.75  3  20  
               1.5  3  20  
               2.25  3  20  
               3  3  20  
            </DataArray>
         </Points> 

         <Cells>
            <DataArray type="Int32" Name="connectivity" NumberOfComponents="1" format="ascii">
               
            </DataArray> 
            <DataArray type="Int32" Name="offsets" NumberOfComponents="1" format="ascii">
               
            </DataArray>
            <DataArray type="UInt8"  Name="types" NumberOfComponents="1" format="ascii">
               
            </DataArray>
         </Cells>
         <PointData Scalars="Rank " Vectors="Displacement Velocity Traction ">
            <DataArray type="UInt32" Name="Rank" NumberOfComponents="1" format="ascii">
               0 0 0 0 0 0 0 0 0 0 0 0 0 0 0 0 0 0 0 0 0 0 0 0 0 
            </DataArray>
            <DataArray type="Float64" Name="Displacement" NumberOfComponents="3" format="ascii">
               0.000904153 0.000904299 -0.00416427  5.76831e-05 0.00151959 -0.00415599  -0.000468841 0.0018001 -0.00401434  -0.000453729 0.00130983 -0.00418375  -0.000987067 0.00163541 -0.00419518  0.00150311 5.58505e-05 -0.00414501  0.000468792 0.000480449 -0.00382436  -0.00016055 0.000755635 -0.00356254  -0.000495737 0.000510065 -0.00397385  -0.00127379 0.000850752 -0.00410108  0.00178049 -0.000463837 -0.00400031  0.00074125 -0.000157268 -0.00356156  -1.21115e-05 -6.72368e-06 -0.00305948  -0.000721269 0.000115812 -0.00358291  -0.00174922 0.000461839 -0.00400816  0.00128799 -0.000431955 -0.0041703  0.000495671 -0.000483922 -0.0039739  0.000109199 -0.000708413 -0.0035825  -0.000462651 -0.000448457 -0.00386269  -0.00148877 -0.000103246 -0.00415569  0.00161072 -0.000957636 -0.00416345  0.000830441 -0.00125223 -0.00408834  0.000454893 -0.00172946 -0.00399457  -0.000103863 -0.00146795 -0.00414275  -0.000942764 -0.000939203 -0.00414759  
            </DataArray>
            <DataArray type="Float64" Name="Velocity" NumberOfComponents="3" format="ascii">
               0.000977226 0.000960416 -0.00435634  7.74641e-05 0.0016035 -0.00429101  -0.000409338 0.00192895 -0.0041276  -0.000402711 0.00139857 -0.00431695  -0.0010139 0.00162492 -0.00436099  0.00161084 6.16591e-05 -0.00429245  0.000486698 0.00047913 -0.00388829  -0.000123938 0.000755499 -0.00356337  -0.00046031 0.000497832 -0.00402803  -0.001335 0.000793155 -0.00423733  0.00193098 -0.000421933 -0.00412265  0.000759594 -0.000135127 -0.00356063  1.27944e-05 3.91538e-06 -0.00296906  -0.000697787 0.000110019 -0.00358711  -0.00185637 0.000434538 -0.0041187  0.00139318 -0.000405181 -0.00430716  0.000498808 -0.00046623 -0.00402364  0.000116943 -0.000701467 -0.00358492  -0.000439314 -0.000441641 -0.00392992  -0.00155301 -9.58246e-05 -0.00428772  0.00161668 -0.00100754 -0.00434334  0.00079041 -0.00133431 -0.00422932  0.000440064 -0.00185606 -0.00411276  -8.39145e-05 -0.00155035 -0.00428567  -0.00096934 -0.000981918 -0.00432671  
            </DataArray>
            <DataArray type="Float64" Name="Traction" NumberOfComponents="3" format="ascii">
               0 0 0  0 0 0  0 0 0  0 0 0  0 0 0  0 0 0  0 0 0  0 0 0  0 0 0  0 0 0  0 0 0  0 0 0  0 0 0  0 0 0  0 0 0  0 0 0  0 0 0  0 0 0  0 0 0  0 0 0  0 0 0  0 0 0  0 0 0  0 0 0  0 0 0  
            </DataArray>
         </PointData> 
      </Piece>
   </UnstructuredGrid> 
</VTKFile>
