<?xml version="1.0"?>
<VTKFile type="UnstructuredGrid" version="0.1" byte_order="LittleEndian">
   <UnstructuredGrid>
      <Piece NumberOfPoints="25" NumberOfCells="0" > 
         <Points> 
            <DataArray type="Float64" Name="Position" NumberOfComponents="3" format="ascii"> 
               0  0  15  
               0.75  0  15  
               1.5  0  15  
               2.25  0  15  
               3  0  15  
               0  0.75  15  
               0.75  0.75  15  
               1.5  0.75  15  
               2.25  0.75  15  
               3  0.75  15  
               0  1.5  15  
               0.75  1.5  15  
               1.5  1.5  15  
               2.25  1.5  15  
               3  1.5  15  
               0  2.25  15  
               0.75  2.25  15  
               1.5  2.25  15  
               2.25  2.25  15  
               3  2.25  15  
               0  3  15  
               0.75  3  15  
               1.5  3  15  
               2.25  3  15  
               3  3  15  
            </DataArray>
         </Points> 

         <Cells>
            <DataArray type="Int32" Name="connectivity" NumberOfComponents="1" format="ascii">
               
            </DataArray> 
            <DataArray type="Int32" Name="offsets" NumberOfComponents="1" format="ascii">
               
            </DataArray>
            <DataArray type="UInt8"  Name="types" NumberOfComponents="1" format="ascii">
               
            </DataArray>
         </Cells>
         <PointData Scalars="Rank " Vectors="Displacement Velocity Traction ">
            <DataArray type="UInt32" Name="Rank" NumberOfComponents="1" format="ascii">
               0 0 0 0 0 0 0 0 0 0 0 0 0 0 0 0 0 0 0 0 0 0 0 0 0 
            </DataArray>
            <DataArray type="Float64" Name="Displacement" NumberOfComponents="3" format="ascii">
               0.000813348 0.000763128 -0.000472701  0.000770839 0.000115883 -0.000459414  0.000609728 -5.89357e-05 -0.000432864  0.00042196 -9.48046e-05 -0.000455913  0.000352334 -0.000481664 -0.000468653  9.5026e-05 0.000721828 -0.000459568  9.69053e-05 0.000115877 -0.000403135  3.59886e-06 -7.98906e-06 -0.000361568  -8.32023e-05 -9.36964e-05 -0.000417833  -7.11771e-05 -0.00055019 -0.000444527  -9.87835e-05 0.000569908 -0.000434334  -4.61478e-05 1.06821e-05 -0.000362183  -0.000122838 -9.80883e-05 -0.000290199  -0.000189576 -0.000213899 -0.000363365  -0.000131614 -0.000726223 -0.000429012  -0.000154101 0.000390169 -0.000458064  -0.000144836 -9.26368e-05 -0.000418373  -0.000241045 -0.000180919 -0.000363526  -0.000334438 -0.000333187 -0.000406012  -0.000331884 -0.000867515 -0.000454564  -0.000520795 0.000322365 -0.000472607  -0.000581302 -9.29913e-05 -0.00044575  -0.000735382 -0.000140966 -0.000430064  -0.000852474 -0.000347618 -0.000455497  -0.000877644 -0.000902955 -0.000465229  
            </DataArray>
            <DataArray type="Float64" Name="Velocity" NumberOfComponents="3" format="ascii">
               0.000384865 0.000464734 -0.000526215  0.000352979 3.29055e-05 -0.00052736  0.000243538 -0.000115939 -0.00050671  0.000117725 -0.000109973 -0.000529244  6.93213e-05 -0.000360196 -0.00053065  -5.95727e-05 0.000432124 -0.000524177  -6.2671e-05 2.92734e-05 -0.000483877  -0.000147526 -7.14331e-05 -0.000450026  -0.000229945 -0.000104609 -0.000503333  -0.000226836 -0.000412682 -0.000516901  -0.000194049 0.000324103 -0.000504377  -0.000151771 -5.54603e-05 -0.000450523  -0.000200979 -0.000117578 -0.00038581  -0.000249714 -0.000184623 -0.000451673  -0.00020828 -0.000540537 -0.000503796  -0.000190285 0.000199128 -0.000528408  -0.000187087 -0.000134503 -0.000504564  -0.000272021 -0.000161204 -0.000452186  -0.000358852 -0.000267283 -0.000487655  -0.000362994 -0.00064644 -0.00052472  -0.000461502 0.000149908 -0.000527599  -0.00051326 -0.000128512 -0.000515821  -0.000641983 -0.000115402 -0.000502237  -0.000749497 -0.00026994 -0.000522251  -0.000780569 -0.000677778 -0.000522643  
            </DataArray>
            <DataArray type="Float64" Name="Traction" NumberOfComponents="3" format="ascii">
               0.0139068 0.0145579 -0.0371978  0.00170683 0.0168654 -0.0371978  -0.00356351 0.0175645 -0.0371978  -0.00883301 0.0180321 -0.0371978  -0.0210574 0.0192701 -0.0371978  0.0175278 0.00253272 -0.0371978  0.0047426 0.00578448 -0.0371978  -0.000879576 0.00634127 -0.0371978  -0.00690982 0.00581618 -0.0371978  -0.0184334 0.00760813 -0.0371978  0.0178671 -0.00321689 -0.0371978  0.00466486 -0.000208433 -0.0371978  -0.00129302 -0.000539287 -0.0371978  -0.00797677 -0.000951894 -0.0371978  -0.0193628 0.00163438 -0.0371978  0.0178436 -0.00865629 -0.0371978  0.00443432 -0.00675358 -0.0371978  -0.00159226 -0.00801742 -0.0371978  -0.00805752 -0.00825292 -0.0371978  -0.0159321 -0.00645397 -0.0371978  0.0190855 -0.0217754 -0.0371978  0.00634046 -0.0181027 -0.0371978  0.00133251 -0.0185175 -0.0371978  -0.00603711 -0.0162626 -0.0371978  -0.0104769 -0.0108891 -0.0371978  
            </DataArray>
         </PointData> 
      </Piece>
   </UnstructuredGrid> 
</VTKFile>
