<?xml version="1.0"?>
<VTKFile type="UnstructuredGrid" version="0.1" byte_order="LittleEndian">
   <UnstructuredGrid>
      <Piece NumberOfPoints="25" NumberOfCells="0" > 
         <Points> 
            <DataArray type="Float64" Name="Position" NumberOfComponents="3" format="ascii"> 
               0  0  15  
               0.75  0  15  
               1.5  0  15  
               2.25  0  15  
               3  0  15  
               0  0.75  15  
               0.75  0.75  15  
               1.5  0.75  15  
               2.25  0.75  15  
               3  0.75  15  
               0  1.5  15  
               0.75  1.5  15  
               1.5  1.5  15  
               2.25  1.5  15  
               3  1.5  15  
               0  2.25  15  
               0.75  2.25  15  
               1.5  2.25  15  
               2.25  2.25  15  
               3  2.25  15  
               0  3  15  
               0.75  3  15  
               1.5  3  15  
               2.25  3  15  
               3  3  15  
            </DataArray>
         </Points> 

         <Cells>
            <DataArray type="Int32" Name="connectivity" NumberOfComponents="1" format="ascii">
               
            </DataArray> 
            <DataArray type="Int32" Name="offsets" NumberOfComponents="1" format="ascii">
               
            </DataArray>
            <DataArray type="UInt8"  Name="types" NumberOfComponents="1" format="ascii">
               
            </DataArray>
         </Cells>
         <PointData Scalars="Rank " Vectors="Displacement Velocity Traction ">
            <DataArray type="UInt32" Name="Rank" NumberOfComponents="1" format="ascii">
               0 0 0 0 0 0 0 0 0 0 0 0 0 0 0 0 0 0 0 0 0 0 0 0 0 
            </DataArray>
            <DataArray type="Float64" Name="Displacement" NumberOfComponents="3" format="ascii">
               0.00119629 0.00124091 -0.00119512  0.00111826 0.000141142 -0.00118896  0.000842328 -0.000198421 -0.00113925  0.000524941 -0.000220713 -0.00119118  0.00040475 -0.000864134 -0.00120203  1.68064e-05 0.00116346 -0.0011842  1.33547e-05 0.000135106 -0.00108137  -0.000172505 -0.000101796 -0.00099863  -0.000348402 -0.000216039 -0.00112348  -0.000333715 -0.000990532 -0.00116448  -0.000325385 0.00089736 -0.00113599  -0.000228644 -6.28065e-05 -0.00099946  -0.000356284 -0.000239892 -0.000845266  -0.000474831 -0.000421705 -0.00100304  -0.000374226 -0.00130327 -0.00113401  -0.000370971 0.000587921 -0.00119003  -0.000359916 -0.000251966 -0.00112518  -0.000546976 -0.000368723 -0.00100363  -0.000734553 -0.000629064 -0.00109001  -0.000739035 -0.00155771 -0.00118378  -0.00102095 0.000468367 -0.00119724  -0.00113871 -0.000246588 -0.00116252  -0.00143099 -0.000280768 -0.00113112  -0.0016644 -0.000647267 -0.00117986  -0.00172537 -0.0016278 -0.0011863  
            </DataArray>
            <DataArray type="Float64" Name="Velocity" NumberOfComponents="3" format="ascii">
               0.000466658 0.000597219 -0.00117364  0.000418792 2.44719e-05 -0.00118796  0.000273548 -0.000193026 -0.00115506  0.000112821 -0.000171486 -0.00120003  4.88593e-05 -0.000489767 -0.00119367  -0.000111708 0.00054849 -0.00118056  -0.000121773 1.31786e-05 -0.00111171  -0.00024304 -0.000137774 -0.00104963  -0.000358427 -0.000170227 -0.00115676  -0.000356124 -0.000566978 -0.0011767  -0.00030905 0.00040295 -0.00114684  -0.000254654 -0.000109117 -0.00104944  -0.000318951 -0.000199413 -0.00092228  -0.000385712 -0.000280607 -0.00105452  -0.000333368 -0.000743439 -0.00115507  -0.000293357 0.000241114 -0.00119315  -0.000293548 -0.000221329 -0.00115776  -0.000410149 -0.000259256 -0.0010548  -0.000532674 -0.000394512 -0.00112189  -0.000545291 -0.000889767 -0.00119019  -0.000646355 0.000175474 -0.00117668  -0.00072291 -0.000215423 -0.00117035  -0.00090143 -0.000199964 -0.00114766  -0.00105262 -0.00040173 -0.00118205  -0.0011021 -0.00093655 -0.00117362  
            </DataArray>
            <DataArray type="Float64" Name="Traction" NumberOfComponents="3" format="ascii">
               0.0228163 0.0237908 -0.0634197  0.00448808 0.0277995 -0.0634197  -0.006174 0.0289047 -0.0634197  -0.0169576 0.0290718 -0.0634197  -0.0346972 0.0312429 -0.0634197  0.0284254 0.00574422 -0.0634197  0.00933053 0.010563 -0.0634197  -0.00128317 0.011068 -0.0634197  -0.0132623 0.0106674 -0.0634197  -0.0308822 0.0141311 -0.0634197  0.0293481 -0.00535968 -0.0634197  0.00926483 -0.000314465 -0.0634197  -0.00168952 -0.000616993 -0.0634197  -0.0142938 -0.00117553 -0.0634197  -0.0317825 0.00308591 -0.0634197  0.0291201 -0.0164757 -0.0634197  0.00929338 -0.0127204 -0.0634197  -0.00206509 -0.0138006 -0.0634197  -0.0143009 -0.0140015 -0.0634197  -0.0276751 -0.0106219 -0.0634197  0.0313309 -0.0352363 -0.0634197  0.0129807 -0.0302145 -0.0634197  0.00261292 -0.0304919 -0.0634197  -0.0105472 -0.0275006 -0.0634197  -0.0201459 -0.0202336 -0.0634197  
            </DataArray>
         </PointData> 
      </Piece>
   </UnstructuredGrid> 
</VTKFile>
