<?xml version="1.0"?>
<VTKFile type="UnstructuredGrid" version="0.1" byte_order="LittleEndian">
   <UnstructuredGrid>
      <Piece NumberOfPoints="25" NumberOfCells="0" > 
         <Points> 
            <DataArray type="Float64" Name="Position" NumberOfComponents="3" format="ascii"> 
               0  0  20  
               0.75  0  20  
               1.5  0  20  
               2.25  0  20  
               3  0  20  
               0  0.75  20  
               0.75  0.75  20  
               1.5  0.75  20  
               2.25  0.75  20  
               3  0.75  20  
               0  1.5  20  
               0.75  1.5  20  
               1.5  1.5  20  
               2.25  1.5  20  
               3  1.5  20  
               0  2.25  20  
               0.75  2.25  20  
               1.5  2.25  20  
               2.25  2.25  20  
               3  2.25  20  
               0  3  20  
               0.75  3  20  
               1.5  3  20  
               2.25  3  20  
               3  3  20  
            </DataArray>
         </Points> 

         <Cells>
            <DataArray type="Int32" Name="connectivity" NumberOfComponents="1" format="ascii">
               
            </DataArray> 
            <DataArray type="Int32" Name="offsets" NumberOfComponents="1" format="ascii">
               
            </DataArray>
            <DataArray type="UInt8"  Name="types" NumberOfComponents="1" format="ascii">
               
            </DataArray>
         </Cells>
         <PointData Scalars="Rank " Vectors="Displacement Velocity Traction ">
            <DataArray type="UInt32" Name="Rank" NumberOfComponents="1" format="ascii">
               0 0 0 0 0 0 0 0 0 0 0 0 0 0 0 0 0 0 0 0 0 0 0 0 0 
            </DataArray>
            <DataArray type="Float64" Name="Displacement" NumberOfComponents="3" format="ascii">
               2.9947e-05 2.93386e-05 -0.000116328  -9.3881e-07 5.38238e-05 -0.000107679  -1.6226e-05 6.53662e-05 -9.81538e-05  -1.21198e-05 4.49705e-05 -0.000104748  -3.4825e-05 5.25272e-05 -0.0001135  5.537e-05 -1.49466e-06 -0.000108829  1.67293e-05 1.51551e-05 -8.68608e-05  -2.33625e-06 2.47548e-05 -7.18717e-05  -1.09413e-05 1.32744e-05 -8.88974e-05  -4.2257e-05 2.39444e-05 -0.000102491  6.78908e-05 -1.70423e-05 -9.96547e-05  2.70474e-05 -3.05969e-06 -7.19861e-05  3.37535e-06 2.17767e-06 -4.85975e-05  -2.00269e-05 4.49145e-06 -7.24925e-05  -6.10773e-05 1.85738e-05 -9.75805e-05  4.75981e-05 -1.45836e-05 -0.00010595  1.55776e-05 -1.20378e-05 -8.86928e-05  6.10237e-06 -2.10022e-05 -7.23401e-05  -1.13482e-05 -1.27299e-05 -8.7328e-05  -5.03388e-05 2.57985e-06 -0.000106439  5.4418e-05 -3.80423e-05 -0.000116074  2.59055e-05 -4.41204e-05 -0.000103285  1.97883e-05 -6.23778e-05 -9.82898e-05  3.28299e-06 -5.17266e-05 -0.000107383  -2.76272e-05 -2.85431e-05 -0.000113961  
            </DataArray>
            <DataArray type="Float64" Name="Velocity" NumberOfComponents="3" format="ascii">
               4.40408e-05 4.57177e-05 -0.000174589  -7.10169e-07 7.73142e-05 -0.000167824  -2.66545e-05 8.98029e-05 -0.000157024  -2.22719e-05 6.35095e-05 -0.00016587  -4.97679e-05 8.10922e-05 -0.000171271  7.6956e-05 1.21758e-06 -0.00016842  2.41647e-05 2.45808e-05 -0.000144955  -7.26203e-06 3.80216e-05 -0.000128845  -2.21139e-05 2.36277e-05 -0.000150658  -6.15289e-05 4.10596e-05 -0.000160957  9.05399e-05 -2.5034e-05 -0.000158376  3.8408e-05 -5.90734e-06 -0.000129164  9.54121e-07 1.61811e-06 -0.000101199  -3.30785e-05 6.15515e-06 -0.000129557  -8.40681e-05 2.53067e-05 -0.000154721  6.53285e-05 -2.29451e-05 -0.000167503  2.45893e-05 -2.17987e-05 -0.000150797  6.13854e-06 -3.32596e-05 -0.000129617  -2.07142e-05 -2.14629e-05 -0.000146107  -7.14541e-05 -1.33924e-06 -0.000164902  8.31265e-05 -5.16626e-05 -0.00017457  4.28608e-05 -6.2273e-05 -0.000162003  2.56969e-05 -8.50404e-05 -0.000155946  -1.97761e-06 -7.30992e-05 -0.000166249  -4.45547e-05 -4.41861e-05 -0.000170143  
            </DataArray>
            <DataArray type="Float64" Name="Traction" NumberOfComponents="3" format="ascii">
               -0.0002744 -0.000255922 -0.00196549  -0.000102284 -0.000409494 -0.00196549  7.39485e-05 -0.000508104 -0.00196549  8.40051e-05 -0.000347114 -0.00196549  0.000230941 -0.000336804 -0.00196549  -0.000421566 -8.86172e-05 -0.00196549  -0.00017081 -0.000164025 -0.00196549  0.000127293 -0.000269373 -0.00196549  0.000161698 -0.000171938 -0.00196549  0.000318304 -0.000140103 -0.00196549  -0.000523414 7.75308e-05 -0.00196549  -0.000277207 0.000123165 -0.00196549  0.000109683 0.000106379 -0.00196549  0.000253714 3.09061e-05 -0.00196549  0.000485814 -7.46745e-06 -0.00196549  -0.000352903 0.000103432 -0.00196549  -0.000170754 0.000170352 -0.00196549  3.69517e-05 0.000257072 -0.00196549  0.00015991 0.000163749 -0.00196549  0.00039918 8.38828e-05 -0.00196549  -0.000342709 0.000262362 -0.00196549  -0.00013926 0.000340969 -0.00196549  2.04923e-06 0.000499946 -0.00196549  8.56513e-05 0.000411755 -0.00196549  0.000244577 0.000251236 -0.00196549  
            </DataArray>
         </PointData> 
      </Piece>
   </UnstructuredGrid> 
</VTKFile>
