<?xml version="1.0"?>
<VTKFile type="UnstructuredGrid" version="0.1" byte_order="LittleEndian">
   <UnstructuredGrid>
      <Piece NumberOfPoints="25" NumberOfCells="0" > 
         <Points> 
            <DataArray type="Float64" Name="Position" NumberOfComponents="3" format="ascii"> 
               0  0  20  
               0.75  0  20  
               1.5  0  20  
               2.25  0  20  
               3  0  20  
               0  0.75  20  
               0.75  0.75  20  
               1.5  0.75  20  
               2.25  0.75  20  
               3  0.75  20  
               0  1.5  20  
               0.75  1.5  20  
               1.5  1.5  20  
               2.25  1.5  20  
               3  1.5  20  
               0  2.25  20  
               0.75  2.25  20  
               1.5  2.25  20  
               2.25  2.25  20  
               3  2.25  20  
               0  3  20  
               0.75  3  20  
               1.5  3  20  
               2.25  3  20  
               3  3  20  
            </DataArray>
         </Points> 

         <Cells>
            <DataArray type="Int32" Name="connectivity" NumberOfComponents="1" format="ascii">
               
            </DataArray> 
            <DataArray type="Int32" Name="offsets" NumberOfComponents="1" format="ascii">
               
            </DataArray>
            <DataArray type="UInt8"  Name="types" NumberOfComponents="1" format="ascii">
               
            </DataArray>
         </Cells>
         <PointData Scalars="Rank " Vectors="Displacement Velocity Traction ">
            <DataArray type="UInt32" Name="Rank" NumberOfComponents="1" format="ascii">
               0 0 0 0 0 0 0 0 0 0 0 0 0 0 0 0 0 0 0 0 0 0 0 0 0 
            </DataArray>
            <DataArray type="Float64" Name="Displacement" NumberOfComponents="3" format="ascii">
               7.88719e-07 7.95697e-07 -3.30863e-06  -3.48875e-08 1.41078e-06 -3.23285e-06  -5.92559e-07 1.61593e-06 -3.0525e-06  -5.12315e-07 1.15952e-06 -3.18655e-06  -9.85992e-07 1.57595e-06 -3.3137e-06  1.40325e-06 -3.00348e-08 -3.23325e-06  4.59201e-07 4.64813e-07 -2.85759e-06  -1.50166e-07 7.28494e-07 -2.63137e-06  -4.42616e-07 4.76288e-07 -2.96854e-06  -1.10437e-06 8.59073e-07 -3.10518e-06  1.60107e-06 -5.83083e-07 -3.04887e-06  7.25763e-07 -1.37474e-07 -2.63158e-06  1.81697e-08 1.67351e-08 -2.23225e-06  -6.54509e-07 1.29643e-07 -2.6497e-06  -1.52132e-06 5.83791e-07 -3.03873e-06  1.14189e-06 -5.12536e-07 -3.17908e-06  4.71032e-07 -4.46138e-07 -2.96937e-06  1.38284e-07 -6.6137e-07 -2.64693e-06  -4.21951e-07 -4.29496e-07 -2.88316e-06  -1.35045e-06 2.62098e-09 -3.22029e-06  1.56577e-06 -9.91281e-07 -3.30944e-06  8.58737e-07 -1.1113e-06 -3.11153e-06  5.97318e-07 -1.54196e-06 -3.04522e-06  2.51663e-09 -1.38688e-06 -3.22757e-06  -8.19125e-07 -8.32135e-07 -3.30042e-06  
            </DataArray>
            <DataArray type="Float64" Name="Velocity" NumberOfComponents="3" format="ascii">
               4.91737e-07 5.18877e-07 -2.34957e-06  4.34034e-08 7.70848e-07 -2.54732e-06  -5.15868e-07 7.01912e-07 -2.60134e-06  -4.68617e-07 6.06146e-07 -2.60175e-06  -5.37257e-07 1.17495e-06 -2.32396e-06  7.35993e-07 5.58437e-08 -2.54402e-06  3.61661e-07 3.75962e-07 -2.66695e-06  -1.91405e-07 5.15957e-07 -2.81456e-06  -4.26985e-07 4.78636e-07 -2.84622e-06  -5.05607e-07 8.23603e-07 -2.45171e-06  6.71348e-07 -4.95426e-07 -2.59262e-06  5.0799e-07 -1.69288e-07 -2.81593e-06  -4.1745e-08 -4.21885e-08 -2.89006e-06  -4.93689e-07 1.35391e-07 -2.83579e-06  -5.97667e-07 4.87887e-07 -2.5549e-06  5.76363e-07 -4.68416e-07 -2.58645e-06  4.67471e-07 -4.29472e-07 -2.84689e-06  1.47767e-07 -5.04283e-07 -2.83066e-06  -3.36667e-07 -3.50364e-07 -2.70379e-06  -6.87917e-07 -6.62765e-08 -2.52367e-06  1.14993e-06 -5.45995e-07 -2.31815e-06  8.2027e-07 -5.19096e-07 -2.46506e-06  5.04338e-07 -6.31739e-07 -2.56731e-06  -7.05073e-08 -7.35589e-07 -2.53666e-06  -5.4075e-07 -5.45669e-07 -2.31192e-06  
            </DataArray>
            <DataArray type="Float64" Name="Traction" NumberOfComponents="3" format="ascii">
               0 0 0  0 0 0  0 0 0  0 0 0  0 0 0  0 0 0  0 0 0  0 0 0  0 0 0  0 0 0  0 0 0  0 0 0  0 0 0  0 0 0  0 0 0  0 0 0  0 0 0  0 0 0  0 0 0  0 0 0  0 0 0  0 0 0  0 0 0  0 0 0  0 0 0  
            </DataArray>
         </PointData> 
      </Piece>
   </UnstructuredGrid> 
</VTKFile>
