<?xml version="1.0"?>
<VTKFile type="UnstructuredGrid" version="0.1" byte_order="LittleEndian">
   <UnstructuredGrid>
      <Piece NumberOfPoints="25" NumberOfCells="0" > 
         <Points> 
            <DataArray type="Float64" Name="Position" NumberOfComponents="3" format="ascii"> 
               0  0  20  
               0.75  0  20  
               1.5  0  20  
               2.25  0  20  
               3  0  20  
               0  0.75  20  
               0.75  0.75  20  
               1.5  0.75  20  
               2.25  0.75  20  
               3  0.75  20  
               0  1.5  20  
               0.75  1.5  20  
               1.5  1.5  20  
               2.25  1.5  20  
               3  1.5  20  
               0  2.25  20  
               0.75  2.25  20  
               1.5  2.25  20  
               2.25  2.25  20  
               3  2.25  20  
               0  3  20  
               0.75  3  20  
               1.5  3  20  
               2.25  3  20  
               3  3  20  
            </DataArray>
         </Points> 

         <Cells>
            <DataArray type="Int32" Name="connectivity" NumberOfComponents="1" format="ascii">
               
            </DataArray> 
            <DataArray type="Int32" Name="offsets" NumberOfComponents="1" format="ascii">
               
            </DataArray>
            <DataArray type="UInt8"  Name="types" NumberOfComponents="1" format="ascii">
               
            </DataArray>
         </Cells>
         <PointData Scalars="Rank " Vectors="Displacement Velocity Traction ">
            <DataArray type="UInt32" Name="Rank" NumberOfComponents="1" format="ascii">
               0 0 0 0 0 0 0 0 0 0 0 0 0 0 0 0 0 0 0 0 0 0 0 0 0 
            </DataArray>
            <DataArray type="Float64" Name="Displacement" NumberOfComponents="3" format="ascii">
               5.19556e-05 5.24035e-05 -0.000207286  -1.24705e-06 9.27652e-05 -0.000196051  -2.99581e-05 0.000110735 -0.000181361  -2.3767e-05 7.71319e-05 -0.000192425  -5.98589e-05 9.40538e-05 -0.000203225  9.38099e-05 -6.66678e-07 -0.000197294  2.87013e-05 2.76404e-05 -0.000164429  -6.54087e-06 4.41925e-05 -0.000141669  -2.28309e-05 2.55945e-05 -0.000169567  -7.37686e-05 4.53302e-05 -0.000187663  0.000113192 -2.97501e-05 -0.0001833  4.62845e-05 -6.38494e-06 -0.00014194  3.34964e-06 2.75946e-06 -0.000104826  -3.74171e-05 7.62475e-06 -0.000142632  -0.000103928 3.12209e-05 -0.000179682  8.02332e-05 -2.61281e-05 -0.000194271  2.79811e-05 -2.34957e-05 -0.000169494  8.88719e-06 -3.82027e-05 -0.000142539  -2.23619e-05 -2.37694e-05 -0.000165514  -8.67375e-05 1.39451e-06 -0.000193481  9.65821e-05 -6.3508e-05 -0.000207054  4.77906e-05 -7.56131e-05 -0.000188861  3.23298e-05 -0.000105367 -0.000180845  1.51088e-06 -8.85878e-05 -0.000194873  -5.06533e-05 -5.10586e-05 -0.000202968  
            </DataArray>
            <DataArray type="Float64" Name="Velocity" NumberOfComponents="3" format="ascii">
               6.37542e-05 6.72269e-05 -0.000272313  -7.7654e-07 0.000113493 -0.000266738  -4.0714e-05 0.000132585 -0.000252366  -3.49843e-05 9.42105e-05 -0.00026539  -7.30451e-05 0.000122621 -0.000269915  0.000111316 2.80037e-06 -0.000266502  3.44225e-05 3.6573e-05 -0.0002369  -1.34694e-05 5.72676e-05 -0.000215053  -3.63639e-05 3.68514e-05 -0.000246441  -9.31032e-05 6.39366e-05 -0.000258081  0.000131394 -3.73508e-05 -0.000253043  5.58121e-05 -1.05451e-05 -0.000215493  -1.19307e-06 1.12546e-06 -0.000176319  -5.23803e-05 9.20362e-06 -0.000216015  -0.000126194 3.6705e-05 -0.00024936  9.45361e-05 -3.36657e-05 -0.000266797  3.61877e-05 -3.45086e-05 -0.000246959  7.47044e-06 -5.11913e-05 -0.000216248  -3.34307e-05 -3.26963e-05 -0.000238789  -0.000107167 -4.57031e-06 -0.000263293  0.000123513 -7.30508e-05 -0.000272493  6.43983e-05 -9.21332e-05 -0.000258921  3.57235e-05 -0.00012576 -0.000250247  -6.81786e-06 -0.000107604 -0.000263999  -6.84332e-05 -6.62525e-05 -0.000267419  
            </DataArray>
            <DataArray type="Float64" Name="Traction" NumberOfComponents="3" format="ascii">
               -0.000445027 -0.000419249 -0.00309896  -0.000159385 -0.000691131 -0.00309896  0.000145657 -0.000829699 -0.00309896  0.0001394 -0.000558393 -0.00309896  0.000352818 -0.00058135 -0.00309896  -0.000711872 -0.000137471 -0.00309896  -0.000296881 -0.000281122 -0.00309896  0.000212481 -0.000448677 -0.00309896  0.00026116 -0.00029037 -0.00309896  0.000496043 -0.000262222 -0.00309896  -0.000856731 0.000156863 -0.00309896  -0.000466661 0.000213838 -0.00309896  0.000174026 0.000176848 -0.00309896  0.000407653 4.84542e-05 -0.00309896  0.000771268 -2.43906e-05 -0.00309896  -0.000578142 0.000173458 -0.00309896  -0.000298615 0.000279196 -0.00309896  4.9675e-05 0.000421075 -0.00309896  0.000257629 0.000270609 -0.00309896  0.000643979 0.000132962 -0.00309896  -0.000602485 0.000403861 -0.00309896  -0.000271344 0.000531797 -0.00309896  -1.84838e-05 0.000798999 -0.00309896  0.000131343 0.00067041 -0.00309896  0.000392788 0.000405732 -0.00309896  
            </DataArray>
         </PointData> 
      </Piece>
   </UnstructuredGrid> 
</VTKFile>
