<?xml version="1.0"?>
<VTKFile type="UnstructuredGrid" version="0.1" byte_order="LittleEndian">
   <UnstructuredGrid>
      <Piece NumberOfPoints="25" NumberOfCells="0" > 
         <Points> 
            <DataArray type="Float64" Name="Position" NumberOfComponents="3" format="ascii"> 
               0  0  15  
               0.75  0  15  
               1.5  0  15  
               2.25  0  15  
               3  0  15  
               0  0.75  15  
               0.75  0.75  15  
               1.5  0.75  15  
               2.25  0.75  15  
               3  0.75  15  
               0  1.5  15  
               0.75  1.5  15  
               1.5  1.5  15  
               2.25  1.5  15  
               3  1.5  15  
               0  2.25  15  
               0.75  2.25  15  
               1.5  2.25  15  
               2.25  2.25  15  
               3  2.25  15  
               0  3  15  
               0.75  3  15  
               1.5  3  15  
               2.25  3  15  
               3  3  15  
            </DataArray>
         </Points> 

         <Cells>
            <DataArray type="Int32" Name="connectivity" NumberOfComponents="1" format="ascii">
               
            </DataArray> 
            <DataArray type="Int32" Name="offsets" NumberOfComponents="1" format="ascii">
               
            </DataArray>
            <DataArray type="UInt8"  Name="types" NumberOfComponents="1" format="ascii">
               
            </DataArray>
         </Cells>
         <PointData Scalars="Rank " Vectors="Displacement Velocity Traction ">
            <DataArray type="UInt32" Name="Rank" NumberOfComponents="1" format="ascii">
               0 0 0 0 0 0 0 0 0 0 0 0 0 0 0 0 0 0 0 0 0 0 0 0 0 
            </DataArray>
            <DataArray type="Float64" Name="Displacement" NumberOfComponents="3" format="ascii">
               0.000954961 0.00093656 -0.000690734  0.000900183 0.000126748 -0.000678786  0.000697835 -0.000105411 -0.000644347  0.000462962 -0.000137731 -0.000676472  0.000375144 -0.000617977 -0.000689288  6.9939e-05 0.000882753 -0.000677482  7.04101e-05 0.00012513 -0.000605611  -5.53694e-05 -3.77407e-05 -0.000550702  -0.000173624 -0.000134824 -0.000628462  -0.000160487 -0.000706629 -0.000660179  -0.000175433 0.000690022 -0.000644599  -0.000106829 -1.24864e-05 -0.00055147  -0.000201929 -0.000145062 -0.000453514  -0.000287103 -0.000285338 -0.000553206  -0.000213606 -0.000931167 -0.000639629  -0.000228306 0.000463346 -0.000677973  -0.000218012 -0.000145969 -0.000629471  -0.000346496 -0.00024426 -0.000553556  -0.000473066 -0.000435894 -0.000610108  -0.000472419 -0.00111259 -0.000673279  -0.000697304 0.000376978 -0.000691307  -0.000777688 -0.000144085 -0.000660715  -0.000980734 -0.000186952 -0.000639766  -0.00113885 -0.000451376 -0.000672931  -0.00117616 -0.00116003 -0.000682307  
            </DataArray>
            <DataArray type="Float64" Name="Velocity" NumberOfComponents="3" format="ascii">
               0.000422523 0.000523735 -0.000723474  0.000384434 2.92584e-05 -0.000729985  0.000258936 -0.000148604 -0.000705585  0.000116445 -0.000134652 -0.000734988  6.118e-05 -0.000416525 -0.00073392  -8.27564e-05 0.000484991 -0.000724884  -8.77557e-05 2.36024e-05 -0.000676851  -0.000187895 -9.79873e-05 -0.000634435  -0.000284636 -0.000129901 -0.00070415  -0.000281454 -0.000478789 -0.000719257  -0.000242404 0.000360475 -0.000700971  -0.000193815 -7.64608e-05 -0.000634793  -0.000249515 -0.000150121 -0.000550917  -0.000305831 -0.000222686 -0.000636875  -0.000258819 -0.00062733 -0.000703612  -0.00023247 0.000218125 -0.000732071  -0.000229884 -0.000169345 -0.000705554  -0.000328792 -0.000199902 -0.000637422  -0.000430927 -0.000318269 -0.000682401  -0.000437698 -0.000750174 -0.000728938  -0.000543643 0.000161586 -0.000725857  -0.000605202 -0.000162698 -0.000716372  -0.000755401 -0.000147004 -0.000699924  -0.000881574 -0.000321736 -0.000724117  -0.000919682 -0.00078729 -0.000721585  
            </DataArray>
            <DataArray type="Float64" Name="Traction" NumberOfComponents="3" format="ascii">
               0.0170927 0.0178898 -0.0468557  0.00264492 0.0208209 -0.0468557  -0.00452028 0.0216675 -0.0468557  -0.0117176 0.0220509 -0.0468557  -0.0260168 0.0236652 -0.0468557  0.0214692 0.00365155 -0.0468557  0.00634008 0.00746991 -0.0468557  -0.00106673 0.00800314 -0.0468557  -0.00918853 0.00752636 -0.0468557  -0.0229606 0.0099389 -0.0468557  0.0220188 -0.00399131 -0.0468557  0.00625873 -0.000269932 -0.0468557  -0.00149734 -0.000610657 -0.0468557  -0.0102829 -0.00106658 -0.0468557  -0.0239176 0.00213896 -0.0468557  0.0219326 -0.0114165 -0.0468557  0.00611968 -0.00886944 -0.0468557  -0.00181474 -0.0101035 -0.0468557  -0.0103353 -0.0103345 -0.0468557  -0.0202078 -0.00797493 -0.0468557  0.0235458 -0.0266717 -0.0468557  0.00867133 -0.0224851 -0.0468557  0.00176067 -0.0228731 -0.0468557  -0.00767777 -0.0203377 -0.0468557  -0.0139397 -0.0142411 -0.0468557  
            </DataArray>
         </PointData> 
      </Piece>
   </UnstructuredGrid> 
</VTKFile>
