<?xml version="1.0"?>
<VTKFile type="UnstructuredGrid" version="0.1" byte_order="LittleEndian">
   <UnstructuredGrid>
      <Piece NumberOfPoints="25" NumberOfCells="0" > 
         <Points> 
            <DataArray type="Float64" Name="Position" NumberOfComponents="3" format="ascii"> 
               0  0  20  
               0.75  0  20  
               1.5  0  20  
               2.25  0  20  
               3  0  20  
               0  0.75  20  
               0.75  0.75  20  
               1.5  0.75  20  
               2.25  0.75  20  
               3  0.75  20  
               0  1.5  20  
               0.75  1.5  20  
               1.5  1.5  20  
               2.25  1.5  20  
               3  1.5  20  
               0  2.25  20  
               0.75  2.25  20  
               1.5  2.25  20  
               2.25  2.25  20  
               3  2.25  20  
               0  3  20  
               0.75  3  20  
               1.5  3  20  
               2.25  3  20  
               3  3  20  
            </DataArray>
         </Points> 

         <Cells>
            <DataArray type="Int32" Name="connectivity" NumberOfComponents="1" format="ascii">
               
            </DataArray> 
            <DataArray type="Int32" Name="offsets" NumberOfComponents="1" format="ascii">
               
            </DataArray>
            <DataArray type="UInt8"  Name="types" NumberOfComponents="1" format="ascii">
               
            </DataArray>
         </Cells>
         <PointData Scalars="Rank " Vectors="Displacement Velocity Traction ">
            <DataArray type="UInt32" Name="Rank" NumberOfComponents="1" format="ascii">
               0 0 0 0 0 0 0 0 0 0 0 0 0 0 0 0 0 0 0 0 0 0 0 0 0 
            </DataArray>
            <DataArray type="Float64" Name="Displacement" NumberOfComponents="3" format="ascii">
               1.26049e-07 1.25707e-07 -4.69888e-07  -1.77486e-09 2.25391e-07 -4.24851e-07  -3.61601e-08 2.94168e-07 -3.82917e-07  -3.55183e-08 2.03966e-07 -4.19233e-07  -1.5108e-07 1.87436e-07 -4.69275e-07  2.25737e-07 -1.67159e-09 -4.24888e-07  4.96871e-08 4.97951e-08 -3.2238e-07  -8.5932e-09 8.84737e-08 -2.37751e-07  -4.32825e-08 4.22415e-08 -3.24074e-07  -2.0233e-07 6.0921e-08 -4.18768e-07  2.93923e-07 -3.60264e-08 -3.82909e-07  8.8473e-08 -8.36451e-09 -2.37755e-07  6.90277e-09 6.83765e-09 -1.10305e-07  -7.95361e-08 8.7838e-09 -2.38706e-07  -2.88086e-07 3.85022e-08 -3.83912e-07  2.03639e-07 -3.55144e-08 -4.19167e-07  4.21767e-08 -4.33947e-08 -3.24107e-07  9.00829e-09 -7.96289e-08 -2.38717e-07  -4.70815e-08 -4.7062e-08 -3.23165e-07  -2.23702e-07 -1.90291e-09 -4.24906e-07  1.87494e-07 -1.51265e-07 -4.69185e-07  6.09026e-08 -2.02418e-07 -4.18834e-07  3.89513e-08 -2.88488e-07 -3.84044e-07  -2.02029e-09 -2.24753e-07 -4.25005e-07  -1.26759e-07 -1.27449e-07 -4.69879e-07  
            </DataArray>
            <DataArray type="Float64" Name="Velocity" NumberOfComponents="3" format="ascii">
               2.68799e-07 2.67616e-07 -1.07188e-06  -1.4442e-08 4.98228e-07 -9.78521e-07  -1.29818e-07 6.23506e-07 -8.84567e-07  -1.15818e-07 4.27095e-07 -9.56893e-07  -3.47087e-07 4.71075e-07 -1.07464e-06  4.99488e-07 -1.40733e-08 -9.787e-07  1.29943e-07 1.30361e-07 -7.65845e-07  -2.86838e-08 2.24832e-07 -6.10354e-07  -1.10133e-07 1.09457e-07 -7.75218e-07  -4.21633e-07 1.9833e-07 -9.53257e-07  6.2246e-07 -1.29232e-07 -8.8449e-07  2.24795e-07 -2.76361e-08 -6.10358e-07  1.94074e-08 1.91412e-08 -3.83753e-07  -1.96893e-07 2.90097e-08 -6.13809e-07  -6.04002e-07 1.35354e-07 -8.87211e-07  4.25612e-07 -1.15791e-07 -9.56545e-07  1.09145e-07 -1.10631e-07 -7.75358e-07  2.99603e-08 -1.97352e-07 -6.13781e-07  -1.20913e-07 -1.21005e-07 -7.68937e-07  -4.90975e-07 3.20993e-09 -9.78289e-07  4.71112e-07 -3.47811e-07 -1.07423e-06  1.98293e-07 -4.22035e-07 -9.5357e-07  1.37126e-07 -6.05747e-07 -8.87756e-07  2.91394e-09 -4.95376e-07 -9.78754e-07  -2.72756e-07 -2.75523e-07 -1.07288e-06  
            </DataArray>
            <DataArray type="Float64" Name="Traction" NumberOfComponents="3" format="ascii">
               -1.02305e-06 -1.04186e-06 -1.19718e-05  -2.92589e-07 -1.78109e-06 -1.19718e-05  2.60574e-07 -2.3958e-06 -1.19718e-05  3.27686e-07 -1.62172e-06 -1.19718e-05  1.04891e-06 -1.26387e-06 -1.19718e-05  -1.78611e-06 -3.07638e-07 -1.19718e-05  -7.15178e-07 -7.09446e-07 -1.19718e-05  4.66628e-07 -1.15282e-06 -1.19718e-05  6.75242e-07 -6.70791e-07 -1.19718e-05  1.60478e-06 -4.75183e-07 -1.19718e-05  -2.41798e-06 2.62041e-07 -1.19718e-05  -1.17059e-06 4.64757e-07 -1.19718e-05  5.77066e-07 5.74677e-07 -1.19718e-05  1.14857e-06 3.18973e-07 -1.19718e-05  2.41705e-06 5.21268e-08 -1.19718e-05  -1.62621e-06 3.34638e-07 -1.19718e-05  -6.75108e-07 6.70266e-07 -1.19718e-05  3.16817e-07 1.1388e-06 -1.19718e-05  6.90688e-07 6.94952e-07 -1.19718e-05  1.77043e-06 2.74251e-07 -1.19718e-05  -1.23947e-06 1.06066e-06 -1.19718e-05  -4.49872e-07 1.598e-06 -1.19718e-05  9.59306e-08 2.39858e-06 -1.19718e-05  3.42226e-07 1.7839e-06 -1.19718e-05  1.04561e-06 9.91509e-07 -1.19718e-05  
            </DataArray>
         </PointData> 
      </Piece>
   </UnstructuredGrid> 
</VTKFile>
