<?xml version="1.0"?>
<VTKFile type="UnstructuredGrid" version="0.1" byte_order="LittleEndian">
   <UnstructuredGrid>
      <Piece NumberOfPoints="25" NumberOfCells="0" > 
         <Points> 
            <DataArray type="Float64" Name="Position" NumberOfComponents="3" format="ascii"> 
               0  0  20  
               0.75  0  20  
               1.5  0  20  
               2.25  0  20  
               3  0  20  
               0  0.75  20  
               0.75  0.75  20  
               1.5  0.75  20  
               2.25  0.75  20  
               3  0.75  20  
               0  1.5  20  
               0.75  1.5  20  
               1.5  1.5  20  
               2.25  1.5  20  
               3  1.5  20  
               0  2.25  20  
               0.75  2.25  20  
               1.5  2.25  20  
               2.25  2.25  20  
               3  2.25  20  
               0  3  20  
               0.75  3  20  
               1.5  3  20  
               2.25  3  20  
               3  3  20  
            </DataArray>
         </Points> 

         <Cells>
            <DataArray type="Int32" Name="connectivity" NumberOfComponents="1" format="ascii">
               
            </DataArray> 
            <DataArray type="Int32" Name="offsets" NumberOfComponents="1" format="ascii">
               
            </DataArray>
            <DataArray type="UInt8"  Name="types" NumberOfComponents="1" format="ascii">
               
            </DataArray>
         </Cells>
         <PointData Scalars="Rank " Vectors="Displacement Velocity Traction ">
            <DataArray type="UInt32" Name="Rank" NumberOfComponents="1" format="ascii">
               0 0 0 0 0 0 0 0 0 0 0 0 0 0 0 0 0 0 0 0 0 0 0 0 0 
            </DataArray>
            <DataArray type="Float64" Name="Displacement" NumberOfComponents="3" format="ascii">
               7.10712e-07 7.1423e-07 -2.94599e-06  -3.87544e-08 1.28455e-06 -2.84606e-06  -5.12466e-07 1.4954e-06 -2.66261e-06  -4.40614e-07 1.06021e-06 -2.79452e-06  -8.97467e-07 1.39359e-06 -2.95433e-06  1.28131e-06 -3.54859e-08 -2.84678e-06  4.03437e-07 4.07235e-07 -2.46249e-06  -1.22755e-07 6.47686e-07 -2.22087e-06  -3.79102e-07 4.0519e-07 -2.54835e-06  -1.01889e-06 7.34979e-07 -2.73399e-06  1.48462e-06 -5.05696e-07 -2.66012e-06  6.45955e-07 -1.13116e-07 -2.22092e-06  2.30795e-08 2.17727e-08 -1.81825e-06  -5.7829e-07 1.09535e-07 -2.2361e-06  -1.41626e-06 5.07614e-07 -2.65493e-06  1.04673e-06 -4.40823e-07 -2.78912e-06  4.01416e-07 -3.82168e-07 -2.54907e-06  1.16379e-07 -5.83601e-07 -2.23407e-06  -3.70411e-07 -3.75982e-07 -2.4828e-06  -1.23621e-06 9.97592e-09 -2.83677e-06  1.38672e-06 -9.01563e-07 -2.95092e-06  7.34986e-07 -1.02397e-06 -2.73854e-06  5.18658e-07 -1.43209e-06 -2.65974e-06  1.02536e-08 -1.26563e-06 -2.84224e-06  -7.34504e-07 -7.4639e-07 -2.94262e-06  
            </DataArray>
            <DataArray type="Float64" Name="Velocity" NumberOfComponents="3" format="ascii">
               5.48182e-07 5.66848e-07 -2.48153e-06  7.51838e-09 9.136e-07 -2.60214e-06  -5.48452e-07 9.10329e-07 -2.58653e-06  -4.83792e-07 7.19958e-07 -2.61618e-06  -6.43305e-07 1.25182e-06 -2.46471e-06  8.91503e-07 1.6127e-08 -2.60109e-06  3.80164e-07 3.8998e-07 -2.58722e-06  -1.72247e-07 5.59773e-07 -2.63965e-06  -4.17014e-07 4.65855e-07 -2.74069e-06  -6.37352e-07 8.24746e-07 -2.49014e-06  8.86698e-07 -5.32975e-07 -2.58003e-06  5.54435e-07 -1.5387e-07 -2.64034e-06  -2.30267e-08 -2.42366e-08 -2.60415e-06  -5.20742e-07 1.31479e-07 -2.65947e-06  -8.09471e-07 5.24562e-07 -2.55234e-06  6.94738e-07 -4.84099e-07 -2.60402e-06  4.57335e-07 -4.20531e-07 -2.74146e-06  1.42872e-07 -5.3062e-07 -2.65495e-06  -3.49127e-07 -3.61464e-07 -2.62003e-06  -8.37585e-07 -3.11184e-08 -2.58233e-06  1.23295e-06 -6.50406e-07 -2.45927e-06  8.23451e-07 -6.48437e-07 -2.50065e-06  5.40928e-07 -8.39103e-07 -2.56223e-06  -3.2097e-08 -8.82798e-07 -2.59341e-06  -5.87163e-07 -5.97069e-07 -2.45538e-06  
            </DataArray>
            <DataArray type="Float64" Name="Traction" NumberOfComponents="3" format="ascii">
               0 0 0  0 0 0  0 0 0  0 0 0  0 0 0  0 0 0  0 0 0  0 0 0  0 0 0  0 0 0  0 0 0  0 0 0  0 0 0  0 0 0  0 0 0  0 0 0  0 0 0  0 0 0  0 0 0  0 0 0  0 0 0  0 0 0  0 0 0  0 0 0  0 0 0  
            </DataArray>
         </PointData> 
      </Piece>
   </UnstructuredGrid> 
</VTKFile>
