<?xml version="1.0"?>
<VTKFile type="UnstructuredGrid" version="0.1" byte_order="LittleEndian">
   <UnstructuredGrid>
      <Piece NumberOfPoints="25" NumberOfCells="0" > 
         <Points> 
            <DataArray type="Float64" Name="Position" NumberOfComponents="3" format="ascii"> 
               0  0  20  
               0.75  0  20  
               1.5  0  20  
               2.25  0  20  
               3  0  20  
               0  0.75  20  
               0.75  0.75  20  
               1.5  0.75  20  
               2.25  0.75  20  
               3  0.75  20  
               0  1.5  20  
               0.75  1.5  20  
               1.5  1.5  20  
               2.25  1.5  20  
               3  1.5  20  
               0  2.25  20  
               0.75  2.25  20  
               1.5  2.25  20  
               2.25  2.25  20  
               3  2.25  20  
               0  3  20  
               0.75  3  20  
               1.5  3  20  
               2.25  3  20  
               3  3  20  
            </DataArray>
         </Points> 

         <Cells>
            <DataArray type="Int32" Name="connectivity" NumberOfComponents="1" format="ascii">
               
            </DataArray> 
            <DataArray type="Int32" Name="offsets" NumberOfComponents="1" format="ascii">
               
            </DataArray>
            <DataArray type="UInt8"  Name="types" NumberOfComponents="1" format="ascii">
               
            </DataArray>
         </Cells>
         <PointData Scalars="Rank " Vectors="Displacement Velocity Traction ">
            <DataArray type="UInt32" Name="Rank" NumberOfComponents="1" format="ascii">
               0 0 0 0 0 0 0 0 0 0 0 0 0 0 0 0 0 0 0 0 0 0 0 0 0 
            </DataArray>
            <DataArray type="Float64" Name="Displacement" NumberOfComponents="3" format="ascii">
               9.29439e-07 9.53383e-07 -4.10446e-06  1.13365e-08 1.59096e-06 -4.16204e-06  -7.54836e-07 1.7249e-06 -4.05239e-06  -6.69982e-07 1.30201e-06 -4.16696e-06  -1.10183e-06 1.9526e-06 -4.09757e-06  1.55907e-06 2.4397e-08 -4.15871e-06  5.78981e-07 5.94364e-07 -3.93027e-06  -2.35528e-07 8.86978e-07 -3.82734e-06  -6.08449e-07 6.62313e-07 -4.12871e-06  -1.1966e-06 1.1603e-06 -4.01265e-06  1.69243e-06 -7.33157e-07 -4.04348e-06  8.7856e-07 -2.11372e-07 -3.82876e-06  -1.23257e-08 -1.27805e-08 -3.53416e-06  -8.18726e-07 1.81455e-07 -3.85477e-06  -1.59099e-06 7.32441e-07 -4.01251e-06  1.26958e-06 -6.69289e-07 -4.15125e-06  6.5037e-07 -6.11523e-07 -4.12975e-06  1.94791e-07 -8.29175e-07 -3.84993e-06  -5.39048e-07 -5.51482e-07 -3.97251e-06  -1.49614e-06 -5.20786e-08 -4.13781e-06  1.92783e-06 -1.11171e-06 -4.09084e-06  1.15608e-06 -1.20991e-06 -4.02613e-06  7.50915e-07 -1.62666e-06 -4.02561e-06  -5.78735e-08 -1.5506e-06 -4.15091e-06  -9.88221e-07 -9.97524e-07 -4.07554e-06  
            </DataArray>
            <DataArray type="Float64" Name="Velocity" NumberOfComponents="3" format="ascii">
               1.57384e-07 2.13142e-07 -1.41202e-06  1.88639e-07 4.39973e-08 -1.86719e-06  -2.33302e-07 -2.31958e-07 -2.16023e-06  -2.6219e-07 4.0985e-08 -2.06534e-06  2.71491e-08 5.7675e-07 -1.38579e-06  -4.25939e-08 2.17123e-07 -1.85066e-06  1.9678e-07 2.31854e-07 -2.45528e-06  -2.15483e-07 2.19599e-07 -2.90725e-06  -3.56577e-07 3.98924e-07 -2.69778e-06  9.85107e-08 5.90035e-07 -1.8671e-06  -2.88318e-07 -1.93103e-07 -2.14267e-06  1.98433e-07 -1.81519e-07 -2.91209e-06  -1.0893e-07 -1.02305e-07 -3.34979e-06  -2.76162e-07 1.07235e-07 -2.9296e-06  3.10117e-07 1.95274e-07 -2.08169e-06  -1.1221e-09 -2.56918e-07 -2.04048e-06  3.76587e-07 -3.50463e-07 -2.69822e-06  1.15663e-07 -2.80608e-07 -2.92541e-06  -2.15082e-07 -2.21942e-07 -2.49809e-06  3.40397e-08 -2.0633e-07 -1.8351e-06  5.2981e-07 1.38748e-08 -1.3795e-06  5.71992e-07 8.25505e-08 -1.88799e-06  1.99412e-07 2.74557e-07 -2.10112e-06  -2.33301e-07 -7.1822e-10 -1.84886e-06  -2.49676e-07 -2.22321e-07 -1.35368e-06  
            </DataArray>
            <DataArray type="Float64" Name="Traction" NumberOfComponents="3" format="ascii">
               -6.43588e-06 -5.72135e-06 -1.77473e-05  -2.10584e-06 -1.02457e-05 -1.77473e-05  3.69225e-06 -1.05256e-05 -1.77473e-05  2.6395e-06 -6.74282e-06 -1.77473e-05  4.22984e-06 -1.08991e-05 -1.77473e-05  -1.02364e-05 -1.20026e-06 -1.77473e-05  -4.17411e-06 -4.02e-06 -1.77473e-05  3.74963e-06 -6.24051e-06 -1.77473e-05  3.78475e-06 -4.38051e-06 -1.77473e-05  5.03616e-06 -5.94668e-06 -1.77473e-05  -1.09364e-05 4.35207e-06 -1.77473e-05  -6.62712e-06 3.73262e-06 -1.77473e-05  2.09426e-06 2.14169e-06 -1.77473e-05  6.29296e-06 -6.08438e-07 -1.77473e-05  1.01238e-05 -2.19569e-06 -1.77473e-05  -6.82673e-06 3.25312e-06 -1.77473e-05  -4.59452e-06 3.82689e-06 -1.77473e-05  -8.00252e-07 6.22641e-06 -1.77473e-05  3.42963e-06 3.6982e-06 -1.77473e-05  9.10422e-06 9.61162e-07 -1.77473e-05  -1.02358e-05 4.97245e-06 -1.77473e-05  -5.53197e-06 5.15133e-06 -1.77473e-05  -1.78452e-06 1.01671e-05 -1.77473e-05  1.54309e-06 9.7782e-06 -1.77473e-05  5.44429e-06 5.15714e-06 -1.77473e-05  
            </DataArray>
         </PointData> 
      </Piece>
   </UnstructuredGrid> 
</VTKFile>
