<?xml version="1.0"?>
<VTKFile type="UnstructuredGrid" version="0.1" byte_order="LittleEndian">
   <UnstructuredGrid>
      <Piece NumberOfPoints="25" NumberOfCells="0" > 
         <Points> 
            <DataArray type="Float64" Name="Position" NumberOfComponents="3" format="ascii"> 
               0  0  20  
               0.75  0  20  
               1.5  0  20  
               2.25  0  20  
               3  0  20  
               0  0.75  20  
               0.75  0.75  20  
               1.5  0.75  20  
               2.25  0.75  20  
               3  0.75  20  
               0  1.5  20  
               0.75  1.5  20  
               1.5  1.5  20  
               2.25  1.5  20  
               3  1.5  20  
               0  2.25  20  
               0.75  2.25  20  
               1.5  2.25  20  
               2.25  2.25  20  
               3  2.25  20  
               0  3  20  
               0.75  3  20  
               1.5  3  20  
               2.25  3  20  
               3  3  20  
            </DataArray>
         </Points> 

         <Cells>
            <DataArray type="Int32" Name="connectivity" NumberOfComponents="1" format="ascii">
               
            </DataArray> 
            <DataArray type="Int32" Name="offsets" NumberOfComponents="1" format="ascii">
               
            </DataArray>
            <DataArray type="UInt8"  Name="types" NumberOfComponents="1" format="ascii">
               
            </DataArray>
         </Cells>
         <PointData Scalars="Rank " Vectors="Displacement Velocity Traction ">
            <DataArray type="UInt32" Name="Rank" NumberOfComponents="1" format="ascii">
               0 0 0 0 0 0 0 0 0 0 0 0 0 0 0 0 0 0 0 0 0 0 0 0 0 
            </DataArray>
            <DataArray type="Float64" Name="Displacement" NumberOfComponents="3" format="ascii">
               0.000314206 0.000322869 -0.00144015  7.43492e-06 0.000549504 -0.00143677  -0.000190995 0.000648157 -0.00137997  -0.000176049 0.000467737 -0.00144098  -0.000361714 0.000604355 -0.00145108  0.000537331 1.4798e-05 -0.00143078  0.000165918 0.000175877 -0.00131236  -6.77488e-05 0.000278501 -0.00121654  -0.000186752 0.000185753 -0.00136414  -0.000463362 0.000319334 -0.00140974  0.000637 -0.00018167 -0.00137528  0.000269012 -5.99839e-05 -0.00121729  -9.43755e-06 -1.90879e-06 -0.00103624  -0.000267658 4.40565e-05 -0.0012222  -0.000631249 0.000177027 -0.00137529  0.000458888 -0.000163495 -0.00143855  0.000177768 -0.000177337 -0.00136596  3.69084e-05 -0.000258941 -0.00122283  -0.000172135 -0.00016345 -0.0013237  -0.000538102 -3.22555e-05 -0.00143298  0.000595366 -0.000349243 -0.00144309  0.000310382 -0.000451986 -0.00140663  0.00017062 -0.000620997 -0.00137112  -3.88521e-05 -0.000528716 -0.00142763  -0.000341618 -0.000333328 -0.00143273  
            </DataArray>
            <DataArray type="Float64" Name="Velocity" NumberOfComponents="3" format="ascii">
               0.000295207 0.00029583 -0.0014023  2.11482e-05 0.000496134 -0.0014166  -0.000160799 0.00058526 -0.00137761  -0.000160657 0.00043007 -0.00143105  -0.000328442 0.000549466 -0.00142414  0.000485626 2.02533e-05 -0.00140914  0.000152649 0.000160214 -0.00132378  -6.01565e-05 0.000251708 -0.00124844  -0.00017554 0.000175058 -0.00137758  -0.000423183 0.000293495 -0.00140418  0.000572619 -0.000157766 -0.00136863  0.000242228 -5.81931e-05 -0.00124794  -1.04524e-05 -6.9417e-06 -0.00109414  -0.000248968 3.82278e-05 -0.00125491  -0.000576589 0.000153742 -0.00137865  0.00041621 -0.000146699 -0.00142294  0.000165538 -0.00016824 -0.00137813  3.36834e-05 -0.000240974 -0.00125498  -0.000162006 -0.000152903 -0.00133692  -0.00049479 -4.1539e-05 -0.00142079  0.000534284 -0.000310037 -0.00140461  0.000280228 -0.000410076 -0.00139682  0.000148777 -0.00056431 -0.00137035  -4.24615e-05 -0.000481521 -0.00141218  -0.000317257 -0.000314211 -0.0014036  
            </DataArray>
            <DataArray type="Float64" Name="Traction" NumberOfComponents="3" format="ascii">
               0 0 0  0 0 0  0 0 0  0 0 0  0 0 0  0 0 0  0 0 0  0 0 0  0 0 0  0 0 0  0 0 0  0 0 0  0 0 0  0 0 0  0 0 0  0 0 0  0 0 0  0 0 0  0 0 0  0 0 0  0 0 0  0 0 0  0 0 0  0 0 0  0 0 0  
            </DataArray>
         </PointData> 
      </Piece>
   </UnstructuredGrid> 
</VTKFile>
