<?xml version="1.0"?>
<VTKFile type="UnstructuredGrid" version="0.1" byte_order="LittleEndian">
   <UnstructuredGrid>
      <Piece NumberOfPoints="25" NumberOfCells="0" > 
         <Points> 
            <DataArray type="Float64" Name="Position" NumberOfComponents="3" format="ascii"> 
               0  0  15  
               0.75  0  15  
               1.5  0  15  
               2.25  0  15  
               3  0  15  
               0  0.75  15  
               0.75  0.75  15  
               1.5  0.75  15  
               2.25  0.75  15  
               3  0.75  15  
               0  1.5  15  
               0.75  1.5  15  
               1.5  1.5  15  
               2.25  1.5  15  
               3  1.5  15  
               0  2.25  15  
               0.75  2.25  15  
               1.5  2.25  15  
               2.25  2.25  15  
               3  2.25  15  
               0  3  15  
               0.75  3  15  
               1.5  3  15  
               2.25  3  15  
               3  3  15  
            </DataArray>
         </Points> 

         <Cells>
            <DataArray type="Int32" Name="connectivity" NumberOfComponents="1" format="ascii">
               
            </DataArray> 
            <DataArray type="Int32" Name="offsets" NumberOfComponents="1" format="ascii">
               
            </DataArray>
            <DataArray type="UInt8"  Name="types" NumberOfComponents="1" format="ascii">
               
            </DataArray>
         </Cells>
         <PointData Scalars="Rank " Vectors="Displacement Velocity Traction ">
            <DataArray type="UInt32" Name="Rank" NumberOfComponents="1" format="ascii">
               0 0 0 0 0 0 0 0 0 0 0 0 0 0 0 0 0 0 0 0 0 0 0 0 0 
            </DataArray>
            <DataArray type="Float64" Name="Displacement" NumberOfComponents="3" format="ascii">
               0.000217915 0.000128249 -9.06049e-06  0.000213204 3.12091e-05 -7.33003e-06  0.000190803 2.37952e-05 -5.89527e-06  0.000164988 1.17473e-05 -6.73791e-06  0.000157112 -4.19848e-05 -8.79024e-06  7.89931e-05 0.000125645 -7.58055e-06  8.12959e-05 3.3376e-05 -4.37476e-06  8.08028e-05 2.38853e-05 -1.53318e-06  8.293e-05 7.1338e-06 -3.68627e-06  8.83977e-05 -5.00241e-05 -7.24149e-06  5.56168e-05 0.000108693 -5.98959e-06  5.80068e-05 2.64305e-05 -1.47199e-06  4.4351e-05 1.90282e-06 1.86611e-06  3.48972e-05 -1.12632e-05 -1.64286e-06  3.9874e-05 -7.12783e-05 -6.52346e-06  2.72383e-05 8.69337e-05 -6.64354e-06  2.96118e-05 1.6332e-05 -3.60344e-06  2.80638e-05 -1.78565e-05 -1.57002e-06  2.87646e-05 -2.55574e-05 -4.2454e-06  3.05676e-05 -8.24108e-05 -7.91072e-06  -1.73931e-05 7.98506e-05 -8.68911e-06  -2.08317e-05 1.22319e-05 -7.22055e-06  -2.98024e-05 -2.45033e-05 -6.27844e-06  -2.88571e-05 -3.20011e-05 -7.65642e-06  -2.3701e-05 -8.05291e-05 -9.75219e-06  
            </DataArray>
            <DataArray type="Float64" Name="Velocity" NumberOfComponents="3" format="ascii">
               0.00015457 0.000125075 -3.19933e-05  0.000148627 3.13322e-05 -2.77297e-05  0.000125779 1.14126e-05 -2.41551e-05  9.92811e-05 -4.5925e-06 -2.6119e-05  8.96475e-05 -6.39678e-05 -3.10231e-05  4.68821e-05 0.000120003 -2.83391e-05  4.79806e-05 3.18384e-05 -1.9415e-05  3.98529e-05 1.59255e-05 -1.37971e-05  3.3692e-05 -5.88861e-06 -1.93514e-05  3.68346e-05 -7.22807e-05 -2.57657e-05  1.59645e-05 9.85974e-05 -2.48278e-05  2.26758e-05 1.91598e-05 -1.38043e-05  1.27641e-05 -7.97973e-07 -5.54381e-06  5.95224e-06 -2.41244e-05 -1.40019e-05  1.47366e-05 -9.54087e-05 -2.42448e-05  -4.47533e-06 7.34004e-05 -2.65233e-05  -2.04565e-06 5.88609e-06 -1.9185e-05  -1.02299e-05 -1.60101e-05 -1.38739e-05  -1.76161e-05 -4.17739e-05 -1.94633e-05  -1.55561e-05 -0.000114786 -2.75307e-05  -4.59868e-05 6.45634e-05 -3.18826e-05  -5.20355e-05 3.94456e-06 -2.60254e-05  -6.75367e-05 -1.50356e-05 -2.44607e-05  -7.83499e-05 -4.57664e-05 -2.79159e-05  -7.97129e-05 -0.000119425 -3.13328e-05  
            </DataArray>
            <DataArray type="Float64" Name="Traction" NumberOfComponents="3" format="ascii">
               0.00286308 0.00265522 -0.00324054  -0.000427922 0.00288742 -0.00324054  -0.000285324 0.0030756 -0.00324054  -0.000183503 0.00334974 -0.00324054  -0.00365327 0.00316139 -0.00324054  0.00357493 -0.000478621 -0.00324054  0.000316973 0.000588802 -0.00324054  8.55538e-05 0.00119411 -0.00324054  8.77521e-05 0.000581559 -0.00324054  -0.0028199 0.000263514 -0.00324054  0.00353891 -0.000459336 -0.00324054  0.00046559 9.67904e-05 -0.00324054  -6.44348e-06 2.71314e-05 -0.00324054  -0.000365034 -0.000171876 -0.00324054  -0.00335638 0.000120754 -0.00324054  0.0035098 -0.000301439 -0.00324054  3.56131e-05 -0.000317485 -0.00324054  -0.000199507 -0.00109048 -0.00324054  -0.000417475 -0.00105535 -0.00324054  -0.00153087 -0.000943387 -0.00324054  0.00348734 -0.00411636 -0.00324054  -5.98756e-05 -0.00299309 -0.00324054  0.000260538 -0.00332161 -0.00324054  -0.000464307 -0.00211524 -0.00324054  0.000371925 -2.36983e-06 -0.00324054  
            </DataArray>
         </PointData> 
      </Piece>
   </UnstructuredGrid> 
</VTKFile>
