<?xml version="1.0"?>
<VTKFile type="UnstructuredGrid" version="0.1" byte_order="LittleEndian">
   <UnstructuredGrid>
      <Piece NumberOfPoints="25" NumberOfCells="0" > 
         <Points> 
            <DataArray type="Float64" Name="Position" NumberOfComponents="3" format="ascii"> 
               0  0  20  
               0.75  0  20  
               1.5  0  20  
               2.25  0  20  
               3  0  20  
               0  0.75  20  
               0.75  0.75  20  
               1.5  0.75  20  
               2.25  0.75  20  
               3  0.75  20  
               0  1.5  20  
               0.75  1.5  20  
               1.5  1.5  20  
               2.25  1.5  20  
               3  1.5  20  
               0  2.25  20  
               0.75  2.25  20  
               1.5  2.25  20  
               2.25  2.25  20  
               3  2.25  20  
               0  3  20  
               0.75  3  20  
               1.5  3  20  
               2.25  3  20  
               3  3  20  
            </DataArray>
         </Points> 

         <Cells>
            <DataArray type="Int32" Name="connectivity" NumberOfComponents="1" format="ascii">
               
            </DataArray> 
            <DataArray type="Int32" Name="offsets" NumberOfComponents="1" format="ascii">
               
            </DataArray>
            <DataArray type="UInt8"  Name="types" NumberOfComponents="1" format="ascii">
               
            </DataArray>
         </Cells>
         <PointData Scalars="Rank " Vectors="Displacement Velocity Traction ">
            <DataArray type="UInt32" Name="Rank" NumberOfComponents="1" format="ascii">
               0 0 0 0 0 0 0 0 0 0 0 0 0 0 0 0 0 0 0 0 0 0 0 0 0 
            </DataArray>
            <DataArray type="Float64" Name="Displacement" NumberOfComponents="3" format="ascii">
               8.98263e-09 8.98036e-09 -2.98482e-08  2.8874e-10 1.5166e-08 -2.69984e-08  -4.09944e-10 2.09634e-08 -2.42917e-08  -7.42007e-10 1.4871e-08 -2.69528e-08  -9.36168e-09 9.8442e-09 -2.97889e-08  1.51689e-08 2.89877e-10 -2.69985e-08  2.38373e-09 2.38447e-09 -1.97002e-08  -1.18238e-10 4.39052e-09 -1.26665e-08  -2.28809e-09 2.24981e-09 -1.96935e-08  -1.48465e-08 1.11687e-09 -2.69606e-08  2.09618e-08 -4.09034e-10 -2.42918e-08  4.39066e-09 -1.17359e-10 -1.26666e-08  1.25781e-10 1.25414e-10 -1.38822e-09  -4.25165e-09 1.22509e-10 -1.26772e-08  -2.08675e-08 4.62261e-10 -2.43106e-08  1.48697e-08 -7.42311e-10 -2.69527e-08  2.24977e-09 -2.28847e-09 -1.96937e-08  1.23556e-10 -4.25185e-09 -1.26776e-08  -2.35045e-09 -2.34949e-09 -1.97078e-08  -1.51562e-08 -3.47764e-10 -2.70018e-08  9.84536e-09 -9.36287e-09 -2.97885e-08  1.11657e-09 -1.48469e-08 -2.69609e-08  4.66143e-10 -2.08701e-08 -2.43116e-08  -3.49579e-10 -1.51628e-08 -2.70023e-08  -8.97803e-09 -8.98136e-09 -2.9838e-08  
            </DataArray>
            <DataArray type="Float64" Name="Velocity" NumberOfComponents="3" format="ascii">
               4.56479e-08 4.56241e-08 -1.55003e-07  1.10328e-09 7.79297e-08 -1.39879e-07  -3.59307e-09 1.06781e-07 -1.25847e-07  -5.05361e-09 7.54132e-08 -1.39459e-07  -4.88789e-08 5.30108e-08 -1.54546e-07  7.79561e-08 1.11306e-09 -1.3988e-07  1.30267e-08 1.30341e-08 -1.02556e-07  -1.00324e-09 2.39426e-08 -6.74096e-08  -1.22094e-08 1.19021e-08 -1.02522e-07  -7.52074e-08 8.22921e-09 -1.39517e-07  1.06766e-07 -3.58499e-09 -1.25848e-07  2.39442e-08 -9.94074e-10 -6.74102e-08  1.04881e-09 1.04516e-09 -1.17568e-08  -2.27702e-08 1.03935e-09 -6.75034e-08  -1.05978e-07 4.02171e-09 -1.26005e-07  7.53994e-08 -5.05564e-09 -1.39458e-07  1.19008e-08 -1.22136e-08 -1.02524e-07  1.05034e-09 -2.27726e-08 -6.75068e-08  -1.27407e-08 -1.27328e-08 -1.02623e-07  -7.78358e-08 -1.60153e-09 -1.39906e-07  5.30213e-08 -4.88908e-08 -1.54542e-07  8.22653e-09 -7.52114e-08 -1.3952e-07  4.056e-09 -1.06002e-07 -1.26014e-07  -1.61829e-09 -7.78983e-08 -1.39911e-07  -4.56177e-08 -4.5654e-08 -1.54924e-07  
            </DataArray>
            <DataArray type="Float64" Name="Traction" NumberOfComponents="3" format="ascii">
               0 0 0  0 0 0  0 0 0  0 0 0  0 0 0  0 0 0  0 0 0  0 0 0  0 0 0  0 0 0  0 0 0  0 0 0  0 0 0  0 0 0  0 0 0  0 0 0  0 0 0  0 0 0  0 0 0  0 0 0  0 0 0  0 0 0  0 0 0  0 0 0  0 0 0  
            </DataArray>
         </PointData> 
      </Piece>
   </UnstructuredGrid> 
</VTKFile>
