<?xml version="1.0"?>
<VTKFile type="UnstructuredGrid" version="0.1" byte_order="LittleEndian">
   <UnstructuredGrid>
      <Piece NumberOfPoints="25" NumberOfCells="0" > 
         <Points> 
            <DataArray type="Float64" Name="Position" NumberOfComponents="3" format="ascii"> 
               0  0  20  
               0.75  0  20  
               1.5  0  20  
               2.25  0  20  
               3  0  20  
               0  0.75  20  
               0.75  0.75  20  
               1.5  0.75  20  
               2.25  0.75  20  
               3  0.75  20  
               0  1.5  20  
               0.75  1.5  20  
               1.5  1.5  20  
               2.25  1.5  20  
               3  1.5  20  
               0  2.25  20  
               0.75  2.25  20  
               1.5  2.25  20  
               2.25  2.25  20  
               3  2.25  20  
               0  3  20  
               0.75  3  20  
               1.5  3  20  
               2.25  3  20  
               3  3  20  
            </DataArray>
         </Points> 

         <Cells>
            <DataArray type="Int32" Name="connectivity" NumberOfComponents="1" format="ascii">
               
            </DataArray> 
            <DataArray type="Int32" Name="offsets" NumberOfComponents="1" format="ascii">
               
            </DataArray>
            <DataArray type="UInt8"  Name="types" NumberOfComponents="1" format="ascii">
               
            </DataArray>
         </Cells>
         <PointData Scalars="Rank " Vectors="Displacement Velocity Traction ">
            <DataArray type="UInt32" Name="Rank" NumberOfComponents="1" format="ascii">
               0 0 0 0 0 0 0 0 0 0 0 0 0 0 0 0 0 0 0 0 0 0 0 0 0 
            </DataArray>
            <DataArray type="Float64" Name="Displacement" NumberOfComponents="3" format="ascii">
               0.00554081 0.00551712 -0.0225153  0.00019948 0.00940418 -0.0214668  -0.00186837 0.0118249 -0.0201684  -0.00181779 0.00842573 -0.0215077  -0.00601621 0.00851237 -0.0225428  0.00942015 0.000177876 -0.0214718  0.00239638 0.00238261 -0.0182257  -0.000523006 0.00392376 -0.0154473  -0.00223653 0.00234399 -0.0186795  -0.00821628 0.00342672 -0.0212304  0.0118322 -0.00188802 -0.0201634  0.00393275 -0.000539911 -0.0154427  0.000121307 0.000107265 -0.0108546  -0.00360869 0.000470221 -0.0155268  -0.0114967 0.00194679 -0.0201282  0.00841998 -0.00182595 -0.0214934  0.0023468 -0.00224795 -0.0186714  0.000480269 -0.00361693 -0.0155228  -0.00220814 -0.00221332 -0.0183668  -0.00918864 -0.000325682 -0.0214288  0.0085039 -0.00601053 -0.0225198  0.00342577 -0.00821912 -0.0212192  0.00195447 -0.0115003 -0.0201215  -0.000310629 -0.00918801 -0.0214278  -0.00555214 -0.00556814 -0.022387  
            </DataArray>
            <DataArray type="Float64" Name="Velocity" NumberOfComponents="3" format="ascii">
               0.0146496 0.0146308 -0.0546638  0.000231016 0.0252237 -0.0505138  -0.00333255 0.0330841 -0.0464309  -0.00334359 0.023357 -0.050634  -0.016147 0.0201405 -0.0548879  0.0252732 0.000218037 -0.0505406  0.0053719 0.00533586 -0.0400497  -0.000806558 0.0091745 -0.0305133  -0.00486518 0.00497949 -0.0404954  -0.0230554 0.00601674 -0.0503301  0.033131 -0.00335982 -0.0464545  0.00921181 -0.000827755 -0.0305109  0.000430299 0.00040717 -0.0153465  -0.00844997 0.000808084 -0.0306128  -0.0324593 0.00352713 -0.0463861  0.0233947 -0.00339574 -0.0506467  0.00500946 -0.00490016 -0.040487  0.000828788 -0.0084836 -0.0306095  -0.00499756 -0.0050297 -0.0402355  -0.0248664 -0.000483287 -0.0504355  0.0201833 -0.016201 -0.0549304  0.00605593 -0.0231029 -0.0503451  0.00354536 -0.0325031 -0.0464072  -0.000472802 -0.0249066 -0.050459  -0.0146423 -0.0146578 -0.0544686  
            </DataArray>
            <DataArray type="Float64" Name="Traction" NumberOfComponents="3" format="ascii">
               -0.0359538 -0.0360625 -0.975127  -0.00691713 -0.0701951 -0.975127  0.0173254 -0.0897246 -0.975127  0.0151859 -0.0599638 -0.975127  0.0374483 -0.0528929 -0.975127  -0.0700866 -0.0070985 -0.975127  -0.02765 -0.0278161 -0.975127  0.0211671 -0.0443095 -0.975127  0.0268283 -0.0271121 -0.975127  0.057287 -0.0230465 -0.975127  -0.0895952 0.0170997 -0.975127  -0.0441644 0.020992 -0.975127  0.0234895 0.0233448 -0.975127  0.0431464 0.0114637 -0.975127  0.0876273 -0.00194811 -0.975127  -0.0597339 0.0149 -0.975127  -0.0269481 0.0266177 -0.975127  0.0115966 0.0429593 -0.975127  0.0272851 0.0271296 -0.975127  0.0682275 0.00848591 -0.975127  -0.0526259 0.0371013 -0.975127  -0.0228741 0.0570351 -0.975127  -0.00182522 0.0874207 -0.975127  0.00854605 0.0680592 -0.975127  0.03638 0.03636 -0.975127  
            </DataArray>
         </PointData> 
      </Piece>
   </UnstructuredGrid> 
</VTKFile>
