<?xml version="1.0"?>
<VTKFile type="UnstructuredGrid" version="0.1" byte_order="LittleEndian">
   <UnstructuredGrid>
      <Piece NumberOfPoints="25" NumberOfCells="0" > 
         <Points> 
            <DataArray type="Float64" Name="Position" NumberOfComponents="3" format="ascii"> 
               0  0  15  
               0.75  0  15  
               1.5  0  15  
               2.25  0  15  
               3  0  15  
               0  0.75  15  
               0.75  0.75  15  
               1.5  0.75  15  
               2.25  0.75  15  
               3  0.75  15  
               0  1.5  15  
               0.75  1.5  15  
               1.5  1.5  15  
               2.25  1.5  15  
               3  1.5  15  
               0  2.25  15  
               0.75  2.25  15  
               1.5  2.25  15  
               2.25  2.25  15  
               3  2.25  15  
               0  3  15  
               0.75  3  15  
               1.5  3  15  
               2.25  3  15  
               3  3  15  
            </DataArray>
         </Points> 

         <Cells>
            <DataArray type="Int32" Name="connectivity" NumberOfComponents="1" format="ascii">
               
            </DataArray> 
            <DataArray type="Int32" Name="offsets" NumberOfComponents="1" format="ascii">
               
            </DataArray>
            <DataArray type="UInt8"  Name="types" NumberOfComponents="1" format="ascii">
               
            </DataArray>
         </Cells>
         <PointData Scalars="Rank " Vectors="Displacement Velocity Traction ">
            <DataArray type="UInt32" Name="Rank" NumberOfComponents="1" format="ascii">
               0 0 0 0 0 0 0 0 0 0 0 0 0 0 0 0 0 0 0 0 0 0 0 0 0 
            </DataArray>
            <DataArray type="Float64" Name="Displacement" NumberOfComponents="3" format="ascii">
               1.51892e-05 6.63154e-06 -4.33182e-06  1.51553e-05 -4.50007e-07 -4.65355e-06  1.35204e-05 -1.46204e-06 -4.73807e-06  1.16344e-05 1.26561e-06 -4.78861e-06  1.12272e-05 1.50912e-06 -4.31176e-06  2.22069e-06 6.20389e-06 -4.63797e-06  2.44529e-06 -2.25272e-07 -4.8157e-06  2.21344e-06 -9.86605e-07 -4.98758e-06  1.63102e-06 1.41214e-06 -5.12945e-06  1.59206e-06 7.62607e-07 -4.54499e-06  3.67936e-06 5.56462e-06 -4.71931e-06  2.98234e-06 1.80834e-07 -4.99203e-06  6.22812e-07 -1.56967e-06 -4.98845e-06  -1.93434e-06 1.60482e-06 -5.02372e-06  -3.06566e-06 -3.06271e-07 -4.66101e-06  3.34898e-06 4.8254e-06 -4.75969e-06  3.07471e-06 4.38523e-07 -5.13076e-06  2.74563e-06 -2.59077e-06 -5.01871e-06  2.88212e-06 1.7691e-06 -4.87601e-06  2.54013e-06 6.64266e-07 -4.61582e-06  -4.1698e-06 4.4011e-06 -4.30163e-06  -4.56866e-06 5.50201e-07 -4.56886e-06  -5.84025e-06 -3.14856e-06 -4.68329e-06  -5.20462e-06 1.13266e-06 -4.63228e-06  -3.94898e-06 1.63288e-06 -4.27505e-06  
            </DataArray>
            <DataArray type="Float64" Name="Velocity" NumberOfComponents="3" format="ascii">
               1.7535e-05 3.97294e-06 5.22085e-07  1.77159e-05 -4.69512e-07 -2.05249e-07  1.64369e-05 6.33782e-08 -7.54852e-07  1.4699e-05 2.42103e-06 -5.72857e-07  1.43912e-05 2.54235e-06 5.21307e-07  4.69079e-06 4.12487e-06 -1.62688e-07  4.83445e-06 -1.23275e-07 -1.34329e-06  4.98746e-06 1.46035e-07 -2.0838e-06  4.91794e-06 2.17086e-06 -1.60011e-06  5.15032e-06 1.84489e-06 -3.90393e-07  5.46443e-06 4.43156e-06 -7.22326e-07  4.56348e-06 3.84552e-07 -2.09348e-06  2.56132e-06 -9.99727e-07 -2.92361e-06  7.0328e-07 1.5961e-06 -2.10059e-06  4.33121e-08 6.62332e-07 -6.71488e-07  4.69749e-06 4.24301e-06 -5.37391e-07  4.40486e-06 4.55717e-07 -1.60149e-06  4.35071e-06 -2.29078e-06 -2.10457e-06  4.89281e-06 1.44935e-06 -1.37731e-06  4.75792e-06 1.56396e-06 -1.81244e-07  -8.42649e-07 4.13214e-06 5.31923e-07  -8.57843e-07 2.40397e-07 -4.13089e-07  -9.65921e-07 -3.37831e-06 -6.91268e-07  7.34463e-07 7.38524e-07 -1.78262e-07  2.1557e-06 2.78578e-06 5.59525e-07  
            </DataArray>
            <DataArray type="Float64" Name="Traction" NumberOfComponents="3" format="ascii">
               0.000260827 0.000270283 0.000177427  -0.000115711 0.000151689 0.000177427  -2.39388e-05 5.9342e-05 0.000177427  5.21641e-05 0.000188824 0.000177427  -0.000319538 0.000336266 0.000177427  0.000336091 -9.29397e-05 0.000177427  4.25322e-05 -6.72536e-06 0.000177427  1.7724e-05 6.98249e-05 0.000177427  3.15695e-05 2.58005e-05 0.000177427  -0.000370344 1.7279e-05 0.000177427  0.000355656 -9.92639e-06 0.000177427  9.82948e-05 9.64036e-06 0.000177427  2.50752e-05 1.13468e-05 0.000177427  2.03399e-05 1.0354e-05 0.000177427  -0.000461023 -5.50611e-06 0.000177427  0.00037288 5.81058e-05 0.000177427  3.85074e-05 2.08274e-05 0.000177427  2.01232e-05 -3.29413e-05 0.000177427  4.07269e-05 -2.00282e-06 0.000177427  -0.000100692 -5.16874e-05 0.000177427  0.0003994 -0.000348415 0.000177427  1.03003e-05 -0.000296239 0.000177427  3.84992e-05 -0.00028416 0.000177427  3.66694e-05 -2.27572e-05 0.000177427  0.000249658 0.000189237 0.000177427  
            </DataArray>
         </PointData> 
      </Piece>
   </UnstructuredGrid> 
</VTKFile>
