<?xml version="1.0"?>
<VTKFile type="UnstructuredGrid" version="0.1" byte_order="LittleEndian">
   <UnstructuredGrid>
      <Piece NumberOfPoints="25" NumberOfCells="0" > 
         <Points> 
            <DataArray type="Float64" Name="Position" NumberOfComponents="3" format="ascii"> 
               0  0  20  
               0.75  0  20  
               1.5  0  20  
               2.25  0  20  
               3  0  20  
               0  0.75  20  
               0.75  0.75  20  
               1.5  0.75  20  
               2.25  0.75  20  
               3  0.75  20  
               0  1.5  20  
               0.75  1.5  20  
               1.5  1.5  20  
               2.25  1.5  20  
               3  1.5  20  
               0  2.25  20  
               0.75  2.25  20  
               1.5  2.25  20  
               2.25  2.25  20  
               3  2.25  20  
               0  3  20  
               0.75  3  20  
               1.5  3  20  
               2.25  3  20  
               3  3  20  
            </DataArray>
         </Points> 

         <Cells>
            <DataArray type="Int32" Name="connectivity" NumberOfComponents="1" format="ascii">
               
            </DataArray> 
            <DataArray type="Int32" Name="offsets" NumberOfComponents="1" format="ascii">
               
            </DataArray>
            <DataArray type="UInt8"  Name="types" NumberOfComponents="1" format="ascii">
               
            </DataArray>
         </Cells>
         <PointData Scalars="Rank " Vectors="Displacement Velocity Traction ">
            <DataArray type="UInt32" Name="Rank" NumberOfComponents="1" format="ascii">
               0 0 0 0 0 0 0 0 0 0 0 0 0 0 0 0 0 0 0 0 0 0 0 0 0 
            </DataArray>
            <DataArray type="Float64" Name="Displacement" NumberOfComponents="3" format="ascii">
               9.37246e-07 9.71761e-07 -4.28964e-06  4.99699e-08 1.56022e-06 -4.43486e-06  -7.76838e-07 1.63989e-06 -4.38445e-06  -7.00433e-07 1.27952e-06 -4.47941e-06  -1.06656e-06 2.0138e-06 -4.27915e-06  1.51121e-06 6.86178e-08 -4.42793e-06  6.0187e-07 6.24304e-07 -4.32232e-06  -2.71545e-07 9.06896e-07 -4.30747e-06  -6.62214e-07 7.22181e-07 -4.56355e-06  -1.14979e-06 1.24269e-06 -4.2908e-06  1.59664e-06 -7.47363e-07 -4.3721e-06  8.94113e-07 -2.41102e-07 -4.30989e-06  -3.37626e-08 -3.25482e-08 -4.10377e-06  -8.5235e-07 1.96989e-07 -4.33861e-06  -1.49522e-06 7.47667e-07 -4.33045e-06  1.23946e-06 -6.98461e-07 -4.4591e-06  7.05826e-07 -6.63665e-07 -4.56468e-06  2.11208e-07 -8.62863e-07 -4.33324e-06  -5.67832e-07 -5.80557e-07 -4.37179e-06  -1.45359e-06 -9.33762e-08 -4.40509e-06  1.98003e-06 -1.07877e-06 -4.27129e-06  1.23437e-06 -1.16557e-06 -4.30801e-06  7.65733e-07 -1.53631e-06 -4.34702e-06  -1.05243e-07 -1.51252e-06 -4.42025e-06  -1.01388e-06 -1.01653e-06 -4.25091e-06  
            </DataArray>
            <DataArray type="Float64" Name="Velocity" NumberOfComponents="3" format="ascii">
               -6.13857e-08 6.33481e-09 -7.78213e-07  2.62114e-07 -3.9345e-07 -1.34722e-06  -2.93767e-08 -7.50097e-07 -1.74456e-06  -9.79541e-08 -2.96525e-07 -1.61145e-06  3.78853e-07 1.50182e-07 -7.62341e-07  -5.07036e-07 2.98935e-07 -1.3216e-06  7.40996e-08 1.21583e-07 -2.1503e-06  -2.0658e-07 1.89046e-08 -2.72619e-06  -2.74888e-07 3.04094e-07 -2.40858e-06  4.41393e-07 3.803e-07 -1.40844e-06  -8.20135e-07 2.17405e-08 -1.7218e-06  -1.11333e-08 -1.66832e-07 -2.73302e-06  -1.4157e-07 -1.28502e-07 -3.32769e-06  -1.22053e-07 7.53669e-08 -2.7474e-06  7.98334e-07 -1.19046e-08 -1.65837e-06  -3.43987e-07 -8.81594e-08 -1.58247e-06  2.74644e-07 -2.61972e-07 -2.40917e-06  7.70726e-08 -1.18117e-07 -2.74538e-06  -1.24788e-07 -1.21002e-07 -2.19209e-06  4.53487e-07 -2.75781e-07 -1.31469e-06  9.16341e-08 3.64902e-07 -7.55146e-07  3.50051e-07 4.28704e-07 -1.4311e-06  -2.10266e-08 7.70839e-07 -1.67948e-06  -3.2008e-07 4.3602e-07 -1.32484e-06  -5.54435e-08 -4.937e-09 -7.22425e-07  
            </DataArray>
            <DataArray type="Float64" Name="Traction" NumberOfComponents="3" format="ascii">
               0 0 0  0 0 0  0 0 0  0 0 0  0 0 0  0 0 0  0 0 0  0 0 0  0 0 0  0 0 0  0 0 0  0 0 0  0 0 0  0 0 0  0 0 0  0 0 0  0 0 0  0 0 0  0 0 0  0 0 0  0 0 0  0 0 0  0 0 0  0 0 0  0 0 0  
            </DataArray>
         </PointData> 
      </Piece>
   </UnstructuredGrid> 
</VTKFile>
