<?xml version="1.0"?>
<VTKFile type="UnstructuredGrid" version="0.1" byte_order="LittleEndian">
   <UnstructuredGrid>
      <Piece NumberOfPoints="25" NumberOfCells="0" > 
         <Points> 
            <DataArray type="Float64" Name="Position" NumberOfComponents="3" format="ascii"> 
               0  0  15  
               0.75  0  15  
               1.5  0  15  
               2.25  0  15  
               3  0  15  
               0  0.75  15  
               0.75  0.75  15  
               1.5  0.75  15  
               2.25  0.75  15  
               3  0.75  15  
               0  1.5  15  
               0.75  1.5  15  
               1.5  1.5  15  
               2.25  1.5  15  
               3  1.5  15  
               0  2.25  15  
               0.75  2.25  15  
               1.5  2.25  15  
               2.25  2.25  15  
               3  2.25  15  
               0  3  15  
               0.75  3  15  
               1.5  3  15  
               2.25  3  15  
               3  3  15  
            </DataArray>
         </Points> 

         <Cells>
            <DataArray type="Int32" Name="connectivity" NumberOfComponents="1" format="ascii">
               
            </DataArray> 
            <DataArray type="Int32" Name="offsets" NumberOfComponents="1" format="ascii">
               
            </DataArray>
            <DataArray type="UInt8"  Name="types" NumberOfComponents="1" format="ascii">
               
            </DataArray>
         </Cells>
         <PointData Scalars="Rank " Vectors="Displacement Velocity Traction ">
            <DataArray type="UInt32" Name="Rank" NumberOfComponents="1" format="ascii">
               0 0 0 0 0 0 0 0 0 0 0 0 0 0 0 0 0 0 0 0 0 0 0 0 0 
            </DataArray>
            <DataArray type="Float64" Name="Displacement" NumberOfComponents="3" format="ascii">
               6.0135e-06 4.14511e-06 -3.60574e-06  5.91675e-06 -1.83272e-07 -3.55708e-06  5.1267e-06 -8.94406e-07 -3.3887e-06  4.28687e-06 2.38346e-07 -3.52121e-06  4.07886e-06 1.21815e-07 -3.60294e-06  2.81948e-07 3.76188e-06 -3.55708e-06  4.19955e-07 -1.35591e-07 -3.20708e-06  2.64038e-07 -6.38944e-07 -3.0063e-06  -3.78731e-08 3.84458e-07 -3.34242e-06  -9.68146e-08 -2.23125e-07 -3.41919e-06  1.19919e-06 3.05602e-06 -3.38444e-06  9.74081e-07 2.37679e-08 -3.00659e-06  -1.77451e-07 -7.93754e-07 -2.62486e-06  -1.47072e-06 6.71139e-07 -3.02721e-06  -2.08142e-06 -6.88528e-07 -3.36891e-06  1.06688e-06 2.45333e-06 -3.51177e-06  9.75218e-07 2.07787e-07 -3.34332e-06  8.02166e-07 -1.22738e-06 -3.02389e-06  7.77656e-07 8.08826e-07 -3.23763e-06  5.77529e-07 -3.10449e-07 -3.54141e-06  -2.68588e-06 2.14509e-06 -3.59771e-06  -3.00067e-06 3.55818e-07 -3.42737e-06  -4.00175e-06 -1.31218e-06 -3.37697e-06  -4.176e-06 5.52449e-07 -3.55035e-06  -3.71336e-06 -1.36007e-08 -3.59012e-06  
            </DataArray>
            <DataArray type="Float64" Name="Velocity" NumberOfComponents="3" format="ascii">
               8.44832e-06 3.30105e-06 -2.14766e-06  8.43551e-06 -1.8201e-07 -2.41662e-06  7.43965e-06 -1.19187e-06 -2.54104e-06  6.32809e-06 6.06997e-07 -2.51297e-06  6.09593e-06 1.07124e-06 -2.11312e-06  1.15289e-06 3.06782e-06 -2.41099e-06  1.26917e-06 -3.92871e-08 -2.67114e-06  1.0387e-06 -7.99304e-07 -2.91073e-06  5.36863e-07 7.57745e-07 -2.87212e-06  4.46781e-07 6.63982e-07 -2.34375e-06  1.83155e-06 2.86287e-06 -2.53085e-06  1.45851e-06 1.35999e-07 -2.91273e-06  1.72294e-07 -1.00534e-06 -3.09505e-06  -1.32175e-06 9.2711e-07 -2.93253e-06  -1.99942e-06 1.2597e-07 -2.48438e-06  1.83568e-06 2.56622e-06 -2.49506e-06  1.66178e-06 2.39234e-07 -2.87264e-06  1.38037e-06 -1.44798e-06 -2.92728e-06  1.37085e-06 1.07557e-06 -2.7109e-06  1.15468e-06 7.68792e-07 -2.38995e-06  -2.66636e-06 2.35017e-06 -2.10716e-06  -2.86842e-06 3.1015e-07 -2.35975e-06  -3.47751e-06 -1.72282e-06 -2.49897e-06  -2.96249e-06 7.34363e-07 -2.40415e-06  -2.21282e-06 1.37739e-06 -2.09771e-06  
            </DataArray>
            <DataArray type="Float64" Name="Traction" NumberOfComponents="3" format="ascii">
               0.000149606 0.0001519 -9.05088e-05  -6.0935e-05 9.24004e-05 -9.05088e-05  -2.61448e-05 -1.47133e-06 -9.05088e-05  1.67383e-05 8.08126e-05 -9.05088e-05  -0.00016696 0.000188642 -9.05088e-05  0.000149767 -4.93764e-05 -9.05088e-05  1.18814e-05 -9.37859e-06 -9.05088e-05  1.18333e-06 6.18562e-06 -9.05088e-05  8.87616e-06 4.9903e-06 -9.05088e-05  -0.000201484 2.03368e-05 -9.05088e-05  0.000148563 -1.18547e-05 -9.05088e-05  2.6411e-05 -3.11256e-06 -9.05088e-05  4.63178e-06 2.55657e-07 -9.05088e-05  2.22269e-05 6.0844e-06 -9.05088e-05  -0.000233143 8.44039e-06 -9.05088e-05  0.000170685 2.25966e-05 -9.05088e-05  1.48591e-05 1.2838e-05 -9.05088e-05  1.02336e-05 7.096e-06 -9.05088e-05  1.69113e-05 1.05304e-05 -9.05088e-05  -9.2247e-05 -1.67583e-05 -9.05088e-05  0.000187736 -0.000156005 -9.05088e-05  1.26022e-05 -0.000146355 -9.05088e-05  2.10338e-05 -0.000121821 -9.05088e-05  2.17962e-05 -1.15339e-05 -9.05088e-05  7.53853e-05 4.41539e-05 -9.05088e-05  
            </DataArray>
         </PointData> 
      </Piece>
   </UnstructuredGrid> 
</VTKFile>
