<?xml version="1.0"?>
<VTKFile type="UnstructuredGrid" version="0.1" byte_order="LittleEndian">
   <UnstructuredGrid>
      <Piece NumberOfPoints="25" NumberOfCells="0" > 
         <Points> 
            <DataArray type="Float64" Name="Position" NumberOfComponents="3" format="ascii"> 
               0  0  20  
               0.75  0  20  
               1.5  0  20  
               2.25  0  20  
               3  0  20  
               0  0.75  20  
               0.75  0.75  20  
               1.5  0.75  20  
               2.25  0.75  20  
               3  0.75  20  
               0  1.5  20  
               0.75  1.5  20  
               1.5  1.5  20  
               2.25  1.5  20  
               3  1.5  20  
               0  2.25  20  
               0.75  2.25  20  
               1.5  2.25  20  
               2.25  2.25  20  
               3  2.25  20  
               0  3  20  
               0.75  3  20  
               1.5  3  20  
               2.25  3  20  
               3  3  20  
            </DataArray>
         </Points> 

         <Cells>
            <DataArray type="Int32" Name="connectivity" NumberOfComponents="1" format="ascii">
               
            </DataArray> 
            <DataArray type="Int32" Name="offsets" NumberOfComponents="1" format="ascii">
               
            </DataArray>
            <DataArray type="UInt8"  Name="types" NumberOfComponents="1" format="ascii">
               
            </DataArray>
         </Cells>
         <PointData Scalars="Rank " Vectors="Displacement Velocity Traction ">
            <DataArray type="UInt32" Name="Rank" NumberOfComponents="1" format="ascii">
               0 0 0 0 0 0 0 0 0 0 0 0 0 0 0 0 0 0 0 0 0 0 0 0 0 
            </DataArray>
            <DataArray type="Float64" Name="Displacement" NumberOfComponents="3" format="ascii">
               9.3348e-07 9.5914e-07 -4.14486e-06  1.72493e-08 1.59088e-06 -4.21649e-06  -7.61191e-07 1.71625e-06 -4.116e-06  -6.7734e-07 1.30217e-06 -4.22759e-06  -1.0999e-06 1.96858e-06 -4.13721e-06  1.5563e-06 3.1193e-08 -4.21263e-06  5.84505e-07 6.00981e-07 -4.0031e-06  -2.41981e-07 8.92933e-07 -3.91417e-06  -6.18914e-07 6.74012e-07 -4.20888e-06  -1.19254e-06 1.17736e-06 -4.0673e-06  1.68206e-06 -7.3827e-07 -4.10655e-06  8.83852e-07 -2.16786e-07 -3.91574e-06  -1.57064e-08 -1.59436e-08 -3.6348e-06  -8.26531e-07 1.84579e-07 -3.94227e-06  -1.58009e-06 7.37642e-07 -4.07373e-06  1.26846e-06 -6.76475e-07 -4.21112e-06  6.61376e-07 -6.21783e-07 -4.20994e-06  1.98149e-07 -8.37091e-07 -3.9373e-06  -5.45222e-07 -5.57833e-07 -4.04663e-06  -1.49377e-06 -5.85099e-08 -4.1913e-06  1.94236e-06 -1.11017e-06 -4.13029e-06  1.17257e-06 -1.20633e-06 -4.08141e-06  7.56202e-07 -1.61681e-06 -4.08742e-06  -6.51673e-08 -1.54922e-06 -4.2048e-06  -9.95112e-07 -1.00352e-06 -4.11419e-06  
            </DataArray>
            <DataArray type="Float64" Name="Velocity" NumberOfComponents="3" format="ascii">
               1.2283e-07 1.80774e-07 -1.31222e-06  2.01326e-07 -2.67932e-08 -1.78745e-06  -2.00922e-07 -3.17254e-07 -2.09893e-06  -2.36627e-07 -1.34097e-08 -1.99721e-06  8.38147e-08 5.09696e-07 -1.28744e-06  -1.17993e-07 2.31248e-07 -1.76947e-06  1.77647e-07 2.14763e-07 -2.41274e-06  -2.14857e-07 1.87658e-07 -2.88675e-06  -3.44765e-07 3.85232e-07 -2.6587e-06  1.54476e-07 5.57984e-07 -1.79728e-06  -3.75907e-07 -1.58902e-07 -2.08053e-06  1.65088e-07 -1.79914e-07 -2.89193e-06  -1.14577e-07 -1.07001e-07 -3.35672e-06  -2.51903e-07 1.02501e-07 -2.90898e-06  3.91011e-07 1.62237e-07 -2.01866e-06  -5.6431e-08 -2.30679e-07 -1.97163e-06  3.61769e-07 -3.37602e-07 -2.65915e-06  1.10021e-07 -2.55179e-07 -2.90509e-06  -2.00996e-07 -2.06394e-07 -2.45555e-06  1.02479e-07 -2.18402e-07 -1.75507e-06  4.60831e-07 7.03246e-08 -1.28107e-06  5.38105e-07 1.38835e-07 -1.81858e-06  1.64449e-07 3.56392e-07 -2.03849e-06  -2.4806e-07 7.01859e-08 -1.76841e-06  -2.19196e-07 -1.88198e-07 -1.25371e-06  
            </DataArray>
            <DataArray type="Float64" Name="Traction" NumberOfComponents="3" format="ascii">
               0 0 0  0 0 0  0 0 0  0 0 0  0 0 0  0 0 0  0 0 0  0 0 0  0 0 0  0 0 0  0 0 0  0 0 0  0 0 0  0 0 0  0 0 0  0 0 0  0 0 0  0 0 0  0 0 0  0 0 0  0 0 0  0 0 0  0 0 0  0 0 0  0 0 0  
            </DataArray>
         </PointData> 
      </Piece>
   </UnstructuredGrid> 
</VTKFile>
