<?xml version="1.0"?>
<VTKFile type="UnstructuredGrid" version="0.1" byte_order="LittleEndian">
   <UnstructuredGrid>
      <Piece NumberOfPoints="25" NumberOfCells="0" > 
         <Points> 
            <DataArray type="Float64" Name="Position" NumberOfComponents="3" format="ascii"> 
               0  0  15  
               0.75  0  15  
               1.5  0  15  
               2.25  0  15  
               3  0  15  
               0  0.75  15  
               0.75  0.75  15  
               1.5  0.75  15  
               2.25  0.75  15  
               3  0.75  15  
               0  1.5  15  
               0.75  1.5  15  
               1.5  1.5  15  
               2.25  1.5  15  
               3  1.5  15  
               0  2.25  15  
               0.75  2.25  15  
               1.5  2.25  15  
               2.25  2.25  15  
               3  2.25  15  
               0  3  15  
               0.75  3  15  
               1.5  3  15  
               2.25  3  15  
               3  3  15  
            </DataArray>
         </Points> 

         <Cells>
            <DataArray type="Int32" Name="connectivity" NumberOfComponents="1" format="ascii">
               
            </DataArray> 
            <DataArray type="Int32" Name="offsets" NumberOfComponents="1" format="ascii">
               
            </DataArray>
            <DataArray type="UInt8"  Name="types" NumberOfComponents="1" format="ascii">
               
            </DataArray>
         </Cells>
         <PointData Scalars="Rank " Vectors="Displacement Velocity Traction ">
            <DataArray type="UInt32" Name="Rank" NumberOfComponents="1" format="ascii">
               0 0 0 0 0 0 0 0 0 0 0 0 0 0 0 0 0 0 0 0 0 0 0 0 0 
            </DataArray>
            <DataArray type="Float64" Name="Displacement" NumberOfComponents="3" format="ascii">
               0.000333505 0.000230455 -4.58029e-05  0.000323663 5.37317e-05 -4.06709e-05  0.000281468 2.66721e-05 -3.59801e-05  0.000232473 4.15828e-06 -3.88946e-05  0.000215958 -9.99492e-05 -4.4432e-05  0.000106243 0.000222989 -4.14108e-05  0.000109189 5.60486e-05 -3.03032e-05  9.94429e-05 3.20083e-05 -2.2495e-05  9.34839e-05 -6.65794e-07 -3.02243e-05  0.000100902 -0.00011552 -3.85903e-05  5.69594e-05 0.000187215 -3.67239e-05  6.56255e-05 3.71243e-05 -2.24832e-05  4.32082e-05 -2.63897e-06 -1.12998e-05  2.70724e-05 -3.42491e-05 -2.28082e-05  3.96926e-05 -0.000157352 -3.63317e-05  1.58896e-05 0.000143329 -3.93018e-05  1.99464e-05 1.50836e-05 -3.0031e-05  8.90683e-06 -3.3969e-05 -2.26599e-05  6.99259e-07 -6.37672e-05 -3.03317e-05  3.84532e-06 -0.000186034 -4.07042e-05  -6.80239e-05 0.000128187 -4.53898e-05  -7.75845e-05 1.01503e-05 -3.88937e-05  -0.000102341 -3.76378e-05 -3.64465e-05  -0.000113295 -7.28771e-05 -4.09507e-05  -0.000110339 -0.000188831 -4.54246e-05  
            </DataArray>
            <DataArray type="Float64" Name="Velocity" NumberOfComponents="3" format="ascii">
               0.000207184 0.000196831 -8.82594e-05  0.000196847 3.81509e-05 -8.20168e-05  0.000156993 -4.49998e-06 -7.5223e-05  0.000110097 -2.05586e-05 -8.00016e-05  9.23718e-05 -0.000120407 -8.57326e-05  3.55749e-05 0.000186433 -8.28827e-05  3.64174e-05 3.80925e-05 -6.69201e-05  1.46643e-05 7.87033e-06 -5.67286e-05  -5.43542e-06 -1.9812e-05 -6.9132e-05  -2.53045e-06 -0.000136107 -7.76767e-05  -1.51705e-05 0.000148192 -7.65319e-05  -1.87689e-06 1.25472e-05 -5.68843e-05  -1.98159e-05 -1.51302e-05 -4.00767e-05  -3.44727e-05 -4.95866e-05 -5.71689e-05  -1.91163e-05 -0.00017838 -7.41805e-05  -3.35026e-05 0.000103239 -8.11746e-05  -3.06864e-05 -1.22423e-05 -6.89928e-05  -5.31683e-05 -3.61851e-05 -5.70811e-05  -7.46892e-05 -8.00464e-05 -6.74041e-05  -7.27242e-05 -0.000214618 -8.04247e-05  -0.000117692 8.64544e-05 -8.81891e-05  -0.000131361 -1.27367e-05 -7.84341e-05  -0.000166685 -2.71606e-05 -7.50844e-05  -0.000194308 -8.42195e-05 -8.15802e-05  -0.000200219 -0.000224752 -8.55171e-05  
            </DataArray>
            <DataArray type="Float64" Name="Traction" NumberOfComponents="3" format="ascii">
               0.0045979 0.0045036 -0.00812419  -0.000312857 0.0050605 -0.00812419  -0.000750462 0.00533386 -0.00812419  -0.00114074 0.00569116 -0.00812419  -0.00623819 0.00566599 -0.00812419  0.00576099 -0.000236683 -0.00812419  0.000759411 0.00124578 -0.00812419  -7.67538e-05 0.00189141 -0.00812419  -0.000675186 0.0012304 -0.00812419  -0.00504464 0.00114353 -0.00812419  0.00570336 -0.000902626 -0.00812419  0.000839239 5.35286e-05 -0.00812419  -0.000248042 -7.61881e-05 -0.00812419  -0.00129306 -0.000336794 -0.00812419  -0.0056658 0.000300152 -0.00812419  0.00567347 -0.00127274 -0.00812419  0.000388514 -0.00106324 -0.00812419  -0.000482765 -0.00203344 -0.00812419  -0.00139892 -0.00209693 -0.00812419  -0.00346046 -0.00178825 -0.00812419  0.00580481 -0.00684707 -0.00812419  0.000519273 -0.00520737 -0.00812419  0.000361286 -0.00558242 -0.00812419  -0.00121641 -0.00418284 -0.00812419  -0.000897787 -0.00140224 -0.00812419  
            </DataArray>
         </PointData> 
      </Piece>
   </UnstructuredGrid> 
</VTKFile>
