<?xml version="1.0"?>
<VTKFile type="UnstructuredGrid" version="0.1" byte_order="LittleEndian">
   <UnstructuredGrid>
      <Piece NumberOfPoints="25" NumberOfCells="0" > 
         <Points> 
            <DataArray type="Float64" Name="Position" NumberOfComponents="3" format="ascii"> 
               0  0  15  
               0.75  0  15  
               1.5  0  15  
               2.25  0  15  
               3  0  15  
               0  0.75  15  
               0.75  0.75  15  
               1.5  0.75  15  
               2.25  0.75  15  
               3  0.75  15  
               0  1.5  15  
               0.75  1.5  15  
               1.5  1.5  15  
               2.25  1.5  15  
               3  1.5  15  
               0  2.25  15  
               0.75  2.25  15  
               1.5  2.25  15  
               2.25  2.25  15  
               3  2.25  15  
               0  3  15  
               0.75  3  15  
               1.5  3  15  
               2.25  3  15  
               3  3  15  
            </DataArray>
         </Points> 

         <Cells>
            <DataArray type="Int32" Name="connectivity" NumberOfComponents="1" format="ascii">
               
            </DataArray> 
            <DataArray type="Int32" Name="offsets" NumberOfComponents="1" format="ascii">
               
            </DataArray>
            <DataArray type="UInt8"  Name="types" NumberOfComponents="1" format="ascii">
               
            </DataArray>
         </Cells>
         <PointData Scalars="Rank " Vectors="Displacement Velocity Traction ">
            <DataArray type="UInt32" Name="Rank" NumberOfComponents="1" format="ascii">
               0 0 0 0 0 0 0 0 0 0 0 0 0 0 0 0 0 0 0 0 0 0 0 0 0 
            </DataArray>
            <DataArray type="Float64" Name="Displacement" NumberOfComponents="3" format="ascii">
               0 0 0  0 0 0  0 0 0  0 0 0  0 0 0  0 0 0  0 0 0  0 0 0  0 0 0  0 0 0  0 0 0  0 0 0  0 0 0  0 0 0  0 0 0  0 0 0  0 0 0  0 0 0  0 0 0  0 0 0  0 0 0  0 0 0  0 0 0  0 0 0  0 0 0  
            </DataArray>
            <DataArray type="Float64" Name="Velocity" NumberOfComponents="3" format="ascii">
               0 0 0  0 0 0  0 0 0  0 0 0  0 0 0  0 0 0  0 0 0  0 0 0  0 0 0  0 0 0  0 0 0  0 0 0  0 0 0  0 0 0  0 0 0  0 0 0  0 0 0  0 0 0  0 0 0  0 0 0  0 0 0  0 0 0  0 0 0  0 0 0  0 0 0  
            </DataArray>
            <DataArray type="Float64" Name="Traction" NumberOfComponents="3" format="ascii">
               0.000274568 0.000283617 0.00021011  -0.000121865 0.000161 0.00021011  -2.24151e-05 7.17535e-05 0.00021011  5.75438e-05 0.00020452 0.00021011  -0.000338575 0.000352714 0.00021011  0.000360036 -9.87523e-05 0.00021011  4.60511e-05 -5.85133e-06 0.00021011  2.06551e-05 7.97443e-05 0.00021011  3.62309e-05 2.85221e-05 0.00021011  -0.000388923 1.50711e-05 0.00021011  0.000384075 -9.54765e-06 0.00021011  0.000107584 1.1567e-05 0.00021011  2.80066e-05 1.30848e-05 0.00021011  2.05515e-05 1.06018e-05 0.00021011  -0.000487537 -7.41168e-06 0.00021011  0.000398667 6.32065e-05 0.00021011  4.04651e-05 2.24162e-05 0.00021011  2.14983e-05 -3.92331e-05 0.00021011  4.41577e-05 -4.63289e-06 0.00021011  -0.000100236 -5.64855e-05 0.00021011  0.000424486 -0.00037266 0.00021011  8.31915e-06 -0.000314901 0.00021011  4.07903e-05 -0.000306437 0.00021011  3.80662e-05 -2.55409e-05 0.00021011  0.000272245 0.000208134 0.00021011  
            </DataArray>
         </PointData> 
      </Piece>
   </UnstructuredGrid> 
</VTKFile>
