<?xml version="1.0"?>
<VTKFile type="UnstructuredGrid" version="0.1" byte_order="LittleEndian">
   <UnstructuredGrid>
      <Piece NumberOfPoints="25" NumberOfCells="0" > 
         <Points> 
            <DataArray type="Float64" Name="Position" NumberOfComponents="3" format="ascii"> 
               0  0  20  
               0.75  0  20  
               1.5  0  20  
               2.25  0  20  
               3  0  20  
               0  0.75  20  
               0.75  0.75  20  
               1.5  0.75  20  
               2.25  0.75  20  
               3  0.75  20  
               0  1.5  20  
               0.75  1.5  20  
               1.5  1.5  20  
               2.25  1.5  20  
               3  1.5  20  
               0  2.25  20  
               0.75  2.25  20  
               1.5  2.25  20  
               2.25  2.25  20  
               3  2.25  20  
               0  3  20  
               0.75  3  20  
               1.5  3  20  
               2.25  3  20  
               3  3  20  
            </DataArray>
         </Points> 

         <Cells>
            <DataArray type="Int32" Name="connectivity" NumberOfComponents="1" format="ascii">
               
            </DataArray> 
            <DataArray type="Int32" Name="offsets" NumberOfComponents="1" format="ascii">
               
            </DataArray>
            <DataArray type="UInt8"  Name="types" NumberOfComponents="1" format="ascii">
               
            </DataArray>
         </Cells>
         <PointData Scalars="Rank " Vectors="Displacement Velocity Traction ">
            <DataArray type="UInt32" Name="Rank" NumberOfComponents="1" format="ascii">
               0 0 0 0 0 0 0 0 0 0 0 0 0 0 0 0 0 0 0 0 0 0 0 0 0 
            </DataArray>
            <DataArray type="Float64" Name="Displacement" NumberOfComponents="3" format="ascii">
               1.50905e-08 1.50843e-08 -5.07114e-08  4.22103e-10 2.56249e-08 -4.58182e-08  -9.53383e-10 3.52574e-08 -4.12235e-08  -1.47025e-09 2.49539e-08 -4.57074e-08  -1.59502e-08 1.70508e-08 -5.05881e-08  2.56319e-08 4.24726e-10 -4.58185e-08  4.16229e-09 4.1642e-09 -3.35195e-08  -2.68173e-10 7.65583e-09 -2.18089e-08  -3.94478e-09 3.86231e-09 -3.35098e-08  -2.48989e-08 2.31718e-09 -4.57229e-08  3.52534e-08 -9.51218e-10 -4.12237e-08  7.6562e-09 -2.6577e-10 -2.18091e-08  2.80205e-10 2.79248e-10 -3.14931e-09  -7.34302e-09 2.77766e-10 -2.18338e-08  -3.50428e-08 1.06823e-09 -4.12657e-08  2.49503e-08 -1.47082e-09 -4.5707e-08  3.86201e-09 -3.94589e-09 -3.35103e-08  2.80626e-10 -7.34366e-09 -2.18348e-08  -4.08613e-09 -4.08402e-09 -3.35373e-08  -2.56001e-08 -5.54983e-10 -4.58255e-08  1.70535e-08 -1.59533e-08 -5.0587e-08  2.31647e-09 -2.48999e-08 -4.57237e-08  1.07739e-09 -3.50491e-08 -4.12681e-08  -5.59346e-10 -2.56167e-08 -4.58268e-08  -1.50823e-08 -1.50917e-08 -5.06902e-08  
            </DataArray>
            <DataArray type="Float64" Name="Velocity" NumberOfComponents="3" format="ascii">
               5.34823e-08 5.34324e-08 -1.86538e-07  8.3852e-10 9.2502e-08 -1.67911e-07  -6.60509e-09 1.25292e-07 -1.51073e-07  -8.0392e-09 8.79805e-08 -1.67098e-07  -5.92366e-08 6.66742e-08 -1.85813e-07  9.2554e-08 8.56699e-10 -1.67913e-07  1.67234e-08 1.67383e-08 -1.23934e-07  -1.8041e-09 3.06408e-08 -8.38399e-08  -1.52616e-08 1.47496e-08 -1.2392e-07  -8.76158e-08 1.36878e-08 -1.67182e-07  1.25263e-07 -6.58938e-09 -1.51074e-07  3.06436e-08 -1.78402e-09 -8.38412e-08  1.83095e-09 1.82335e-09 -2.14377e-08  -2.85637e-08 1.86707e-09 -8.40124e-08  -1.23879e-07 7.33985e-09 -1.51348e-07  8.79504e-08 -8.04191e-09 -1.67094e-07  1.47458e-08 -1.52714e-08 -1.23924e-07  1.89082e-09 -2.85697e-08 -8.40185e-08  -1.62065e-08 -1.61927e-08 -1.24058e-07  -9.23117e-08 -1.71977e-09 -1.67956e-07  6.66938e-08 -5.92612e-08 -1.85805e-07  1.36828e-08 -8.76245e-08 -1.67188e-07  7.40535e-09 -1.23926e-07 -1.51365e-07  -1.75071e-09 -9.24375e-08 -1.67966e-07  -5.34511e-08 -5.35304e-08 -1.86414e-07  
            </DataArray>
            <DataArray type="Float64" Name="Traction" NumberOfComponents="3" format="ascii">
               -1.14554e-07 -1.16155e-07 -2.47467e-05  -3.13677e-08 -1.9736e-07 -2.47467e-05  2.1018e-08 -2.86794e-07 -2.47467e-05  2.55755e-08 -1.94997e-07 -2.47467e-05  1.08282e-07 -1.14373e-07 -2.47467e-05  -1.97761e-07 -3.27711e-08 -2.47467e-05  -7.70583e-08 -7.65992e-08 -2.47467e-05  5.94687e-08 -1.31544e-07 -2.47467e-05  7.63482e-08 -7.66847e-08 -2.47467e-05  1.93543e-07 -3.0191e-08 -2.47467e-05  -2.88031e-07 2.09903e-08 -2.47467e-05  -1.3239e-07 5.93533e-08 -2.47467e-05  9.12865e-08 9.08936e-08 -2.47467e-05  1.32762e-07 5.44537e-08 -2.47467e-05  2.89497e-07 2.19063e-08 -2.47467e-05  -1.95183e-07 2.57181e-08 -2.47467e-05  -7.67509e-08 7.61718e-08 -2.47467e-05  5.43316e-08 1.32063e-07 -2.47467e-05  7.59031e-08 7.64933e-08 -2.47467e-05  1.97549e-07 3.0799e-08 -2.47467e-05  -1.1341e-07 1.08679e-07 -2.47467e-05  -2.92563e-08 1.93451e-07 -2.47467e-05  2.44207e-08 2.87987e-07 -2.47467e-05  3.48263e-08 1.98561e-07 -2.47467e-05  1.15677e-07 1.12875e-07 -2.47467e-05  
            </DataArray>
         </PointData> 
      </Piece>
   </UnstructuredGrid> 
</VTKFile>
