<?xml version="1.0"?>
<VTKFile type="UnstructuredGrid" version="0.1" byte_order="LittleEndian">
   <UnstructuredGrid>
      <Piece NumberOfPoints="25" NumberOfCells="0" > 
         <Points> 
            <DataArray type="Float64" Name="Position" NumberOfComponents="3" format="ascii"> 
               0  0  15  
               0.75  0  15  
               1.5  0  15  
               2.25  0  15  
               3  0  15  
               0  0.75  15  
               0.75  0.75  15  
               1.5  0.75  15  
               2.25  0.75  15  
               3  0.75  15  
               0  1.5  15  
               0.75  1.5  15  
               1.5  1.5  15  
               2.25  1.5  15  
               3  1.5  15  
               0  2.25  15  
               0.75  2.25  15  
               1.5  2.25  15  
               2.25  2.25  15  
               3  2.25  15  
               0  3  15  
               0.75  3  15  
               1.5  3  15  
               2.25  3  15  
               3  3  15  
            </DataArray>
         </Points> 

         <Cells>
            <DataArray type="Int32" Name="connectivity" NumberOfComponents="1" format="ascii">
               
            </DataArray> 
            <DataArray type="Int32" Name="offsets" NumberOfComponents="1" format="ascii">
               
            </DataArray>
            <DataArray type="UInt8"  Name="types" NumberOfComponents="1" format="ascii">
               
            </DataArray>
         </Cells>
         <PointData Scalars="Rank " Vectors="Displacement Velocity Traction ">
            <DataArray type="UInt32" Name="Rank" NumberOfComponents="1" format="ascii">
               0 0 0 0 0 0 0 0 0 0 0 0 0 0 0 0 0 0 0 0 0 0 0 0 0 
            </DataArray>
            <DataArray type="Float64" Name="Displacement" NumberOfComponents="3" format="ascii">
               0 0 0  0 0 0  0 0 0  0 0 0  0 0 0  0 0 0  0 0 0  0 0 0  0 0 0  0 0 0  0 0 0  0 0 0  0 0 0  0 0 0  0 0 0  0 0 0  0 0 0  0 0 0  0 0 0  0 0 0  0 0 0  0 0 0  0 0 0  0 0 0  0 0 0  
            </DataArray>
            <DataArray type="Float64" Name="Velocity" NumberOfComponents="3" format="ascii">
               0 0 0  0 0 0  0 0 0  0 0 0  0 0 0  0 0 0  0 0 0  0 0 0  0 0 0  0 0 0  0 0 0  0 0 0  0 0 0  0 0 0  0 0 0  0 0 0  0 0 0  0 0 0  0 0 0  0 0 0  0 0 0  0 0 0  0 0 0  0 0 0  0 0 0  
            </DataArray>
            <DataArray type="Float64" Name="Traction" NumberOfComponents="3" format="ascii">
               0.00196151 0.00175597 -0.00113839  -0.000408799 0.00182942 -0.00113839  -0.00010194 0.00197012 -0.00113839  0.000121345 0.00219523 -0.00113839  -0.00243156 0.00201245 -0.00113839  0.00248004 -0.000483517 -0.00113839  0.000180653 0.000318693 -0.00113839  0.000134951 0.000858014 -0.00113839  0.000292714 0.000324216 -0.00113839  -0.00184387 -2.69875e-05 -0.00113839  0.00249038 -0.000249704 -0.00113839  0.000364666 0.000101272 -0.00113839  8.50794e-05 5.95959e-05 -0.00113839  -5.89787e-05 -9.15282e-05 -0.00113839  -0.00231621 4.99055e-05 -0.00113839  0.00245829 3.06542e-05 -0.00113839  -2.48521e-05 -5.91437e-05 -0.00113839  -7.15593e-05 -0.000680388 -0.00113839  -6.59281e-05 -0.000595318 -0.00113839  -0.000757194 -0.000559731 -0.00113839  0.00239389 -0.00278751 -0.00113839  -0.000186103 -0.00197374 -0.00113839  0.000212491 -0.00225261 -0.00113839  -0.000165053 -0.0011909 -0.00113839  0.00077121 0.000488336 -0.00113839  
            </DataArray>
         </PointData> 
      </Piece>
   </UnstructuredGrid> 
</VTKFile>
