<?xml version="1.0"?>
<VTKFile type="UnstructuredGrid" version="0.1" byte_order="LittleEndian">
   <UnstructuredGrid>
      <Piece NumberOfPoints="25" NumberOfCells="0" > 
         <Points> 
            <DataArray type="Float64" Name="Position" NumberOfComponents="3" format="ascii"> 
               0  0  15  
               0.75  0  15  
               1.5  0  15  
               2.25  0  15  
               3  0  15  
               0  0.75  15  
               0.75  0.75  15  
               1.5  0.75  15  
               2.25  0.75  15  
               3  0.75  15  
               0  1.5  15  
               0.75  1.5  15  
               1.5  1.5  15  
               2.25  1.5  15  
               3  1.5  15  
               0  2.25  15  
               0.75  2.25  15  
               1.5  2.25  15  
               2.25  2.25  15  
               3  2.25  15  
               0  3  15  
               0.75  3  15  
               1.5  3  15  
               2.25  3  15  
               3  3  15  
            </DataArray>
         </Points> 

         <Cells>
            <DataArray type="Int32" Name="connectivity" NumberOfComponents="1" format="ascii">
               
            </DataArray> 
            <DataArray type="Int32" Name="offsets" NumberOfComponents="1" format="ascii">
               
            </DataArray>
            <DataArray type="UInt8"  Name="types" NumberOfComponents="1" format="ascii">
               
            </DataArray>
         </Cells>
         <PointData Scalars="Rank " Vectors="Displacement Velocity Traction ">
            <DataArray type="UInt32" Name="Rank" NumberOfComponents="1" format="ascii">
               0 0 0 0 0 0 0 0 0 0 0 0 0 0 0 0 0 0 0 0 0 0 0 0 0 
            </DataArray>
            <DataArray type="Float64" Name="Displacement" NumberOfComponents="3" format="ascii">
               0.000361261 0.000257244 -5.84194e-05  0.000349997 5.87468e-05 -5.24549e-05  0.000302324 2.57428e-05 -4.68229e-05  0.000246882 1.17146e-06 -5.04147e-05  0.000227925 -0.000116607 -5.66971e-05  0.000110564 0.000248333 -5.33074e-05  0.000113612 6.10464e-05 -4.00103e-05  0.000100786 3.28285e-05 -3.07934e-05  9.19574e-05 -3.52076e-06 -4.02656e-05  9.97487e-05 -0.000134355 -4.97711e-05  5.43525e-05 0.000207295 -4.77425e-05  6.48652e-05 3.85688e-05 -3.08044e-05  3.99731e-05 -4.9104e-06 -1.7279e-05  2.17861e-05 -4.11759e-05 -3.11678e-05  3.65142e-05 -0.000182025 -4.70184e-05  1.09708e-05 0.000157221 -5.09851e-05  1.5399e-05 1.30951e-05 -4.00569e-05  1.17442e-06 -3.90716e-05 -3.10097e-05  -1.0095e-05 -7.48728e-05 -4.01102e-05  -6.70402e-06 -0.000215709 -5.22577e-05  -8.46699e-05 0.000139756 -5.79955e-05  -9.61521e-05 8.12738e-06 -5.01798e-05  -0.000125873 -4.14126e-05 -4.72595e-05  -0.000140734 -8.45197e-05 -5.2663e-05  -0.000138635 -0.000219913 -5.76526e-05  
            </DataArray>
            <DataArray type="Float64" Name="Velocity" NumberOfComponents="3" format="ascii">
               0.000218996 0.000214129 -0.000104907  0.000207515 3.89082e-05 -9.83745e-05  0.000163395 -9.51658e-06 -9.07415e-05  0.000111438 -2.51209e-05 -9.6336e-05  9.17201e-05 -0.000134924 -0.000102057  3.11347e-05 0.000202391 -9.92366e-05  3.18612e-05 3.87103e-05 -8.16283e-05  6.46027e-06 4.89371e-06 -7.0222e-05  -1.73556e-05 -2.3875e-05 -8.45191e-05  -1.45183e-05 -0.000152595 -9.3475e-05  -2.43895e-05 0.000159925 -9.21263e-05  -9.38539e-06 9.80366e-06 -7.04149e-05  -2.93831e-05 -1.95671e-05 -5.13316e-05  -4.61489e-05 -5.65545e-05 -7.07188e-05  -2.91833e-05 -0.000199819 -8.94036e-05  -4.16772e-05 0.000109995 -9.76588e-05  -3.87851e-05 -1.8029e-05 -8.44209e-05  -6.506e-05 -4.19756e-05 -7.06558e-05  -9.0402e-05 -9.01723e-05 -8.22364e-05  -8.85965e-05 -0.000240252 -9.64459e-05  -0.000137182 9.11902e-05 -0.000104812  -0.000152946 -1.80914e-05 -9.43277e-05  -0.000193668 -3.07131e-05 -9.04292e-05  -0.000225862 -9.42618e-05 -9.77193e-05  -0.000233071 -0.000251675 -0.000101709  
            </DataArray>
            <DataArray type="Float64" Name="Traction" NumberOfComponents="3" format="ascii">
               0.00504812 0.00499546 -0.00948827  -0.000259513 0.00563577 -0.00948827  -0.000882028 0.00593088 -0.00948827  -0.00144177 0.00630732 -0.00948827  -0.00694013 0.00634058 -0.00948827  0.0063358 -0.00014307 -0.00948827  0.000903419 0.00143627 -0.00948827  -0.000123216 0.00208339 -0.00948827  -0.000921882 0.00142072 -0.00948827  -0.00566435 0.00141278 -0.00948827  0.0062815 -0.00101884 -0.00948827  0.000967525 3.99475e-05 -0.00948827  -0.000313813 -0.000105781 -0.00948827  -0.00157804 -0.000378452 -0.00948827  -0.00630591 0.000354054 -0.00948827  0.00625383 -0.00157048 -0.00948827  0.000519192 -0.00129206 -0.00948827  -0.000556173 -0.00229997 -0.00948827  -0.00169138 -0.0023852 -0.00948827  -0.0040168 -0.00201661 -0.00948827  0.0064329 -0.00757613 -0.00948827  0.000721023 -0.00581206 -0.00948827  0.000392353 -0.00619397 -0.00948827  -0.00143285 -0.00475187 -0.00948827  -0.00129155 -0.00181607 -0.00948827  
            </DataArray>
         </PointData> 
      </Piece>
   </UnstructuredGrid> 
</VTKFile>
