<?xml version="1.0"?>
<VTKFile type="UnstructuredGrid" version="0.1" byte_order="LittleEndian">
   <UnstructuredGrid>
      <Piece NumberOfPoints="25" NumberOfCells="0" > 
         <Points> 
            <DataArray type="Float64" Name="Position" NumberOfComponents="3" format="ascii"> 
               0  0  15  
               0.75  0  15  
               1.5  0  15  
               2.25  0  15  
               3  0  15  
               0  0.75  15  
               0.75  0.75  15  
               1.5  0.75  15  
               2.25  0.75  15  
               3  0.75  15  
               0  1.5  15  
               0.75  1.5  15  
               1.5  1.5  15  
               2.25  1.5  15  
               3  1.5  15  
               0  2.25  15  
               0.75  2.25  15  
               1.5  2.25  15  
               2.25  2.25  15  
               3  2.25  15  
               0  3  15  
               0.75  3  15  
               1.5  3  15  
               2.25  3  15  
               3  3  15  
            </DataArray>
         </Points> 

         <Cells>
            <DataArray type="Int32" Name="connectivity" NumberOfComponents="1" format="ascii">
               
            </DataArray> 
            <DataArray type="Int32" Name="offsets" NumberOfComponents="1" format="ascii">
               
            </DataArray>
            <DataArray type="UInt8"  Name="types" NumberOfComponents="1" format="ascii">
               
            </DataArray>
         </Cells>
         <PointData Scalars="Rank " Vectors="Displacement Velocity Traction ">
            <DataArray type="UInt32" Name="Rank" NumberOfComponents="1" format="ascii">
               0 0 0 0 0 0 0 0 0 0 0 0 0 0 0 0 0 0 0 0 0 0 0 0 0 
            </DataArray>
            <DataArray type="Float64" Name="Displacement" NumberOfComponents="3" format="ascii">
               2.10343e-08 2.53994e-08 -4.65042e-08  1.8764e-08 -4.07129e-09 -4.20534e-08  1.3057e-08 6.38484e-09 -3.7884e-08  7.52485e-09 5.94507e-10 -4.19612e-08  5.83924e-09 -2.92347e-09 -4.638e-08  -3.41956e-09 2.23885e-08 -4.20534e-08  -3.38754e-09 -4.42401e-09 -3.08828e-08  -1.50761e-09 4.46837e-09 -2.02169e-08  1.91107e-09 4.73257e-10 -3.08728e-08  3.04239e-09 -5.65466e-09 -4.19736e-08  9.15472e-09 1.31363e-08 -3.78849e-08  6.36899e-09 -1.24022e-09 -2.02164e-08  -2.1164e-09 -1.1134e-09 -3.21179e-09  -1.08002e-08 3.16137e-09 -2.02379e-08  -1.49974e-08 -1.25739e-08 -3.79226e-08  7.95009e-10 7.09164e-09 -4.19605e-08  4.84381e-10 2.20122e-09 -3.08732e-08  3.4197e-09 -9.21412e-09 -2.02392e-08  5.302e-09 3.60102e-09 -3.08981e-08  3.58771e-09 -1.61507e-08 -4.20598e-08  -5.54092e-09 4.6837e-09 -4.63789e-08  -8.07722e-09 2.97987e-09 -4.19747e-08  -1.90955e-08 -1.14229e-08 -3.79245e-08  -2.61879e-08 9.01597e-10 -4.20618e-08  -2.46139e-08 -1.75992e-08 -4.64842e-08  
            </DataArray>
            <DataArray type="Float64" Name="Velocity" NumberOfComponents="3" format="ascii">
               1.02659e-07 1.28444e-07 -2.05098e-07  9.34247e-08 -1.87139e-08 -1.85097e-07  7.05237e-08 2.68391e-08 -1.66685e-07  4.67904e-08 4.7518e-09 -1.84471e-07  3.86222e-08 -1.91045e-08 -2.04399e-07  -1.55043e-08 1.13473e-07 -1.85098e-07  -1.46082e-08 -2.04793e-08 -1.36357e-07  -7.05947e-09 1.72938e-08 -9.0732e-08  7.083e-09 3.66417e-09 -1.36327e-07  1.19505e-08 -3.20128e-08 -1.84538e-07  4.32322e-08 7.15831e-08 -1.66691e-07  2.89299e-08 -6.19657e-09 -9.07298e-08  -1.21225e-08 -6.80244e-09 -1.87462e-08  -5.14152e-08 1.45858e-08 -9.08683e-08  -7.06971e-08 -6.06636e-08 -1.66921e-07  6.46105e-09 4.33076e-08 -1.84466e-07  4.75165e-09 9.43586e-09 -1.3633e-07  1.61506e-08 -4.24791e-08 -9.08756e-08  2.50215e-08 1.6541e-08 -1.36457e-07  1.87964e-08 -7.47127e-08 -1.85135e-07  -3.53421e-08 3.14567e-08 -2.04391e-07  -4.86174e-08 1.36762e-08 -1.84545e-07  -9.83893e-08 -5.24266e-08 -1.66934e-07  -1.31903e-07 5.7851e-09 -1.85146e-07  -1.27497e-07 -8.17083e-08 -2.04985e-07  
            </DataArray>
            <DataArray type="Float64" Name="Traction" NumberOfComponents="3" format="ascii">
               1.9863e-06 2.13216e-06 -3.20463e-05  -4.70711e-07 2.23289e-06 -3.20463e-05  -3.08679e-08 4.96654e-07 -3.20463e-05  9.09877e-08 1.28194e-06 -3.20463e-05  -1.64502e-06 1.87833e-06 -3.20463e-05  1.48471e-06 -6.43133e-07 -3.20463e-05  -3.19443e-07 -4.54219e-07 -3.20463e-05  -5.11222e-08 -4.83299e-07 -3.20463e-05  5.12061e-07 -1.87109e-07 -3.20463e-05  -2.54855e-06 2.57781e-07 -3.20463e-05  1.48823e-06 3.23134e-09 -3.20463e-05  -4.13354e-07 -2.63627e-08 -3.20463e-05  -1.00071e-07 -5.48105e-08 -3.20463e-05  1.01003e-06 7.95909e-08 -3.20463e-05  -3.20267e-06 1.47756e-07 -3.20463e-05  1.80784e-06 3.3905e-07 -3.20463e-05  -2.53873e-07 5.31445e-07 -3.20463e-05  7.1177e-08 7.67511e-07 -3.20463e-05  4.32536e-07 2.64989e-07 -3.20463e-05  -2.29754e-06 -2.0562e-07 -3.20463e-05  1.31836e-06 -1.13319e-06 -3.20463e-05  9.34533e-09 -2.27095e-06 -3.20463e-05  1.30512e-07 -1.8769e-06 -3.20463e-05  9.5496e-09 -1.03075e-06 -3.20463e-05  -1.19782e-06 -1.18607e-06 -3.20463e-05  
            </DataArray>
         </PointData> 
      </Piece>
   </UnstructuredGrid> 
</VTKFile>
