<?xml version="1.0"?>
<VTKFile type="UnstructuredGrid" version="0.1" byte_order="LittleEndian">
   <UnstructuredGrid>
      <Piece NumberOfPoints="25" NumberOfCells="0" > 
         <Points> 
            <DataArray type="Float64" Name="Position" NumberOfComponents="3" format="ascii"> 
               0  0  15  
               0.75  0  15  
               1.5  0  15  
               2.25  0  15  
               3  0  15  
               0  0.75  15  
               0.75  0.75  15  
               1.5  0.75  15  
               2.25  0.75  15  
               3  0.75  15  
               0  1.5  15  
               0.75  1.5  15  
               1.5  1.5  15  
               2.25  1.5  15  
               3  1.5  15  
               0  2.25  15  
               0.75  2.25  15  
               1.5  2.25  15  
               2.25  2.25  15  
               3  2.25  15  
               0  3  15  
               0.75  3  15  
               1.5  3  15  
               2.25  3  15  
               3  3  15  
            </DataArray>
         </Points> 

         <Cells>
            <DataArray type="Int32" Name="connectivity" NumberOfComponents="1" format="ascii">
               
            </DataArray> 
            <DataArray type="Int32" Name="offsets" NumberOfComponents="1" format="ascii">
               
            </DataArray>
            <DataArray type="UInt8"  Name="types" NumberOfComponents="1" format="ascii">
               
            </DataArray>
         </Cells>
         <PointData Scalars="Rank " Vectors="Displacement Velocity Traction ">
            <DataArray type="UInt32" Name="Rank" NumberOfComponents="1" format="ascii">
               0 0 0 0 0 0 0 0 0 0 0 0 0 0 0 0 0 0 0 0 0 0 0 0 0 
            </DataArray>
            <DataArray type="Float64" Name="Displacement" NumberOfComponents="3" format="ascii">
               0.000293731 0.00019348 -3.02934e-05  0.000285804 4.62454e-05 -2.63594e-05  0.000250995 2.69313e-05 -2.29141e-05  0.000210684 7.67249e-06 -2.49793e-05  0.00019744 -7.78385e-05 -2.93777e-05  9.85857e-05 0.000187911 -2.69295e-05  0.00010135 4.8555e-05 -1.87841e-05  9.54656e-05 3.007e-05 -1.28519e-05  9.30267e-05 2.76905e-06 -1.83506e-05  9.98542e-05 -9.05316e-05 -2.50683e-05  5.87905e-05 0.000159207 -2.34114e-05  6.5029e-05 3.42864e-05 -1.28141e-05  4.59189e-05 -1.81149e-07 -4.68837e-06  3.24311e-05 -2.5255e-05 -1.30849e-05  4.2201e-05 -0.000124579 -2.34335e-05  2.15129e-05 0.000123632 -2.51755e-05  2.50176e-05 1.67948e-05 -1.81891e-05  1.7963e-05 -2.74886e-05 -1.29569e-05  1.35479e-05 -4.91144e-05 -1.8732e-05  1.62852e-05 -0.000146588 -2.66633e-05  -4.70872e-05 0.000111571 -2.9892e-05  -5.41915e-05 1.2017e-05 -2.52353e-05  -7.26021e-05 -3.26649e-05 -2.33875e-05  -7.86409e-05 -5.73834e-05 -2.66995e-05  -7.46719e-05 -0.000147537 -3.03966e-05  
            </DataArray>
            <DataArray type="Float64" Name="Velocity" NumberOfComponents="3" format="ascii">
               0.000189839 0.000172045 -6.64613e-05  0.000181084 3.65442e-05 -6.0774e-05  0.000147261 1.98918e-06 -5.51492e-05  0.000107559 -1.44612e-05 -5.88388e-05  9.26766e-05 -0.000100096 -6.44631e-05  4.09754e-05 0.000163541 -6.15962e-05  4.19481e-05 3.66827e-05 -4.80399e-05  2.52193e-05 1.15121e-05 -3.95306e-05  1.02574e-05 -1.44388e-05 -4.9361e-05  1.3267e-05 -0.000113097 -5.72469e-05  -2.91852e-06 0.000131268 -5.62902e-05  7.99838e-06 1.58032e-05 -3.96332e-05  -7.04802e-06 -9.36792e-06 -2.59701e-05  -1.87949e-05 -4.01284e-05 -3.98895e-05  -5.72332e-06 -0.000148479 -5.45255e-05  -2.24916e-05 9.33388e-05 -5.97628e-05  -1.97909e-05 -4.78423e-06 -4.91859e-05  -3.70132e-05 -2.84641e-05 -3.97754e-05  -5.32823e-05 -6.61068e-05 -4.83582e-05  -5.11711e-05 -0.000178776 -5.96775e-05  -9.10055e-05 7.93988e-05 -6.64115e-05  -0.000101831 -5.85262e-06 -5.78448e-05  -0.000129781 -2.24834e-05 -5.5216e-05  -0.00015116 -7.03285e-05 -6.06072e-05  -0.000155339 -0.000187042 -6.44192e-05  
            </DataArray>
            <DataArray type="Float64" Name="Traction" NumberOfComponents="3" format="ascii">
               0.00397605 0.00382977 -0.00628663  -0.000372493 0.00427048 -0.00628663  -0.000573757 0.00451349 -0.00628663  -0.000755192 0.00484264 -0.00628663  -0.00528525 0.00474408 -0.00628663  0.0049701 -0.000348714 -0.00628663  0.00057792 0.00099417 -0.00628663  -1.38374e-05 0.00163319 -0.00628663  -0.000361584 0.000980085 -0.00628663  -0.00421097 0.000794093 -0.00628663  0.0049129 -0.000741836 -0.00628663  0.000681119 7.14436e-05 -0.00628663  -0.000157523 -3.61054e-05 -0.00628663  -0.000923533 -0.000277895 -0.00628663  -0.0048035 0.000230098 -0.00628663  0.00488184 -0.000887365 -0.00628663  0.000231509 -0.000767385 -0.00628663  -0.000379862 -0.00167759 -0.00628663  -0.00101516 -0.00170792 -0.00628663  -0.0027221 -0.00147678 -0.00628663  0.00495132 -0.00584994 -0.00628663  0.000270916 -0.00438769 -0.00628663  0.000322031 -0.00475066 -0.00628663  -0.000928825 -0.00341321 -0.00628663  -0.00038937 -0.000856865 -0.00628663  
            </DataArray>
         </PointData> 
      </Piece>
   </UnstructuredGrid> 
</VTKFile>
