<?xml version="1.0"?>
<VTKFile type="UnstructuredGrid" version="0.1" byte_order="LittleEndian">
   <UnstructuredGrid>
      <Piece NumberOfPoints="25" NumberOfCells="0" > 
         <Points> 
            <DataArray type="Float64" Name="Position" NumberOfComponents="3" format="ascii"> 
               0  0  15  
               0.75  0  15  
               1.5  0  15  
               2.25  0  15  
               3  0  15  
               0  0.75  15  
               0.75  0.75  15  
               1.5  0.75  15  
               2.25  0.75  15  
               3  0.75  15  
               0  1.5  15  
               0.75  1.5  15  
               1.5  1.5  15  
               2.25  1.5  15  
               3  1.5  15  
               0  2.25  15  
               0.75  2.25  15  
               1.5  2.25  15  
               2.25  2.25  15  
               3  2.25  15  
               0  3  15  
               0.75  3  15  
               1.5  3  15  
               2.25  3  15  
               3  3  15  
            </DataArray>
         </Points> 

         <Cells>
            <DataArray type="Int32" Name="connectivity" NumberOfComponents="1" format="ascii">
               
            </DataArray> 
            <DataArray type="Int32" Name="offsets" NumberOfComponents="1" format="ascii">
               
            </DataArray>
            <DataArray type="UInt8"  Name="types" NumberOfComponents="1" format="ascii">
               
            </DataArray>
         </Cells>
         <PointData Scalars="Rank " Vectors="Displacement Velocity Traction ">
            <DataArray type="UInt32" Name="Rank" NumberOfComponents="1" format="ascii">
               0 0 0 0 0 0 0 0 0 0 0 0 0 0 0 0 0 0 0 0 0 0 0 0 0 
            </DataArray>
            <DataArray type="Float64" Name="Displacement" NumberOfComponents="3" format="ascii">
               0 0 0  0 0 0  0 0 0  0 0 0  0 0 0  0 0 0  0 0 0  0 0 0  0 0 0  0 0 0  0 0 0  0 0 0  0 0 0  0 0 0  0 0 0  0 0 0  0 0 0  0 0 0  0 0 0  0 0 0  0 0 0  0 0 0  0 0 0  0 0 0  0 0 0  
            </DataArray>
            <DataArray type="Float64" Name="Velocity" NumberOfComponents="3" format="ascii">
               0 0 0  0 0 0  0 0 0  0 0 0  0 0 0  0 0 0  0 0 0  0 0 0  0 0 0  0 0 0  0 0 0  0 0 0  0 0 0  0 0 0  0 0 0  0 0 0  0 0 0  0 0 0  0 0 0  0 0 0  0 0 0  0 0 0  0 0 0  0 0 0  0 0 0  
            </DataArray>
            <DataArray type="Float64" Name="Traction" NumberOfComponents="3" format="ascii">
               0.000117734 0.00011735 -0.000139853  -4.56484e-05 7.8205e-05 -0.000139853  -2.18844e-05 -4.83139e-06 -0.000139853  1.07961e-05 5.8738e-05 -0.000139853  -0.000126565 0.000144758 -0.000139853  0.000106584 -3.8588e-05 -0.000139853  5.10917e-06 -8.90991e-06 -0.000139853  -2.20668e-07 -2.55473e-06 -0.000139853  7.12317e-06 1.12806e-06 -0.000139853  -0.000153026 1.69074e-05 -0.000139853  0.000105927 -1.03684e-05 -0.000139853  1.25095e-05 -4.27092e-06 -0.000139853  1.38296e-06 -8.65824e-07 -0.000139853  2.17894e-05 4.60263e-06 -0.000139853  -0.00017351 9.43224e-06 -0.000139853  0.000123394 1.60657e-05 -0.000139853  8.10435e-06 1.16161e-05 -0.000139853  8.15997e-06 1.17868e-05 -0.000139853  1.26415e-05 1.04628e-05 -0.000139853  -8.16467e-05 -1.05217e-05 -0.000139853  0.000133395 -0.000109191 -0.000139853  9.57607e-06 -0.000109648 -0.000139853  1.61183e-05 -8.77008e-05 -0.000139853  1.66186e-05 -1.04204e-05 -0.000139853  3.96816e-05 1.64549e-05 -0.000139853  
            </DataArray>
         </PointData> 
      </Piece>
   </UnstructuredGrid> 
</VTKFile>
