<?xml version="1.0"?>
<VTKFile type="UnstructuredGrid" version="0.1" byte_order="LittleEndian">
   <UnstructuredGrid>
      <Piece NumberOfPoints="25" NumberOfCells="0" > 
         <Points> 
            <DataArray type="Float64" Name="Position" NumberOfComponents="3" format="ascii"> 
               0  0  15  
               0.75  0  15  
               1.5  0  15  
               2.25  0  15  
               3  0  15  
               0  0.75  15  
               0.75  0.75  15  
               1.5  0.75  15  
               2.25  0.75  15  
               3  0.75  15  
               0  1.5  15  
               0.75  1.5  15  
               1.5  1.5  15  
               2.25  1.5  15  
               3  1.5  15  
               0  2.25  15  
               0.75  2.25  15  
               1.5  2.25  15  
               2.25  2.25  15  
               3  2.25  15  
               0  3  15  
               0.75  3  15  
               1.5  3  15  
               2.25  3  15  
               3  3  15  
            </DataArray>
         </Points> 

         <Cells>
            <DataArray type="Int32" Name="connectivity" NumberOfComponents="1" format="ascii">
               
            </DataArray> 
            <DataArray type="Int32" Name="offsets" NumberOfComponents="1" format="ascii">
               
            </DataArray>
            <DataArray type="UInt8"  Name="types" NumberOfComponents="1" format="ascii">
               
            </DataArray>
         </Cells>
         <PointData Scalars="Rank " Vectors="Displacement Velocity Traction ">
            <DataArray type="UInt32" Name="Rank" NumberOfComponents="1" format="ascii">
               0 0 0 0 0 0 0 0 0 0 0 0 0 0 0 0 0 0 0 0 0 0 0 0 0 
            </DataArray>
            <DataArray type="Float64" Name="Displacement" NumberOfComponents="3" format="ascii">
               0 0 0  0 0 0  0 0 0  0 0 0  0 0 0  0 0 0  0 0 0  0 0 0  0 0 0  0 0 0  0 0 0  0 0 0  0 0 0  0 0 0  0 0 0  0 0 0  0 0 0  0 0 0  0 0 0  0 0 0  0 0 0  0 0 0  0 0 0  0 0 0  0 0 0  
            </DataArray>
            <DataArray type="Float64" Name="Velocity" NumberOfComponents="3" format="ascii">
               0 0 0  0 0 0  0 0 0  0 0 0  0 0 0  0 0 0  0 0 0  0 0 0  0 0 0  0 0 0  0 0 0  0 0 0  0 0 0  0 0 0  0 0 0  0 0 0  0 0 0  0 0 0  0 0 0  0 0 0  0 0 0  0 0 0  0 0 0  0 0 0  0 0 0  
            </DataArray>
            <DataArray type="Float64" Name="Traction" NumberOfComponents="3" format="ascii">
               0.000329079 0.000333558 0.000323523  -0.00014424 0.000201382 0.000323523  -1.57954e-05 0.00012665 0.000323523  7.90381e-05 0.000268541 0.000323523  -0.000412924 0.000413737 0.000323523  0.000452199 -0.000121807 0.000323523  5.82308e-05 -1.35775e-06 0.000323523  3.26659e-05 0.000119581 0.000323523  5.69251e-05 3.87058e-05 0.000323523  -0.00045615 3.82704e-06 0.000323523  0.000494359 -8.86925e-06 0.000323523  0.000141616 1.8912e-05 0.000323523  3.93097e-05 1.97669e-05 0.000323523  2.28116e-05 1.08857e-05 0.000323523  -0.000584818 -1.38141e-05 0.000323523  0.000497138 8.29337e-05 0.000323523  4.56777e-05 2.93934e-05 0.000323523  2.65865e-05 -6.43783e-05 0.000323523  5.73941e-05 -1.62708e-05 0.000323523  -9.84834e-05 -7.4744e-05 0.000323523  0.000517955 -0.000466346 0.000323523  -1.96995e-06 -0.000385592 0.000323523  5.00777e-05 -0.00039357 0.000323523  4.27648e-05 -3.97295e-05 0.000323523  0.00035669 0.000278296 0.000323523  
            </DataArray>
         </PointData> 
      </Piece>
   </UnstructuredGrid> 
</VTKFile>
