<?xml version="1.0"?>
<VTKFile type="UnstructuredGrid" version="0.1" byte_order="LittleEndian">
   <UnstructuredGrid>
      <Piece NumberOfPoints="25" NumberOfCells="0" > 
         <Points> 
            <DataArray type="Float64" Name="Position" NumberOfComponents="3" format="ascii"> 
               0  0  20  
               0.75  0  20  
               1.5  0  20  
               2.25  0  20  
               3  0  20  
               0  0.75  20  
               0.75  0.75  20  
               1.5  0.75  20  
               2.25  0.75  20  
               3  0.75  20  
               0  1.5  20  
               0.75  1.5  20  
               1.5  1.5  20  
               2.25  1.5  20  
               3  1.5  20  
               0  2.25  20  
               0.75  2.25  20  
               1.5  2.25  20  
               2.25  2.25  20  
               3  2.25  20  
               0  3  20  
               0.75  3  20  
               1.5  3  20  
               2.25  3  20  
               3  3  20  
            </DataArray>
         </Points> 

         <Cells>
            <DataArray type="Int32" Name="connectivity" NumberOfComponents="1" format="ascii">
               
            </DataArray> 
            <DataArray type="Int32" Name="offsets" NumberOfComponents="1" format="ascii">
               
            </DataArray>
            <DataArray type="UInt8"  Name="types" NumberOfComponents="1" format="ascii">
               
            </DataArray>
         </Cells>
         <PointData Scalars="Rank " Vectors="Displacement Velocity Traction ">
            <DataArray type="UInt32" Name="Rank" NumberOfComponents="1" format="ascii">
               0 0 0 0 0 0 0 0 0 0 0 0 0 0 0 0 0 0 0 0 0 0 0 0 0 
            </DataArray>
            <DataArray type="Float64" Name="Displacement" NumberOfComponents="3" format="ascii">
               8.63407e-07 8.75987e-07 -3.68438e-06  -2.29405e-08 1.52121e-06 -3.65108e-06  -6.73638e-07 1.70718e-06 -3.48811e-06  -5.87698e-07 1.24636e-06 -3.61885e-06  -1.06171e-06 1.76126e-06 -3.68456e-06  1.50614e-06 -1.54802e-08 -3.65058e-06  5.16878e-07 5.2552e-07 -3.31201e-06  -1.84277e-07 8.08695e-07 -3.12172e-06  -5.1467e-07 5.57143e-07 -3.45603e-06  -1.17237e-06 9.95203e-07 -3.50971e-06  1.6863e-06 -6.60077e-07 -3.48273e-06  8.04249e-07 -1.67418e-07 -3.12226e-06  8.86214e-09 7.49798e-09 -2.74826e-06  -7.33204e-07 1.52452e-07 -3.14375e-06  -1.59505e-06 6.59722e-07 -3.46515e-06  1.2232e-06 -5.87781e-07 -3.60844e-06  5.49659e-07 -5.18421e-07 -3.45696e-06  1.63212e-07 -7.41833e-07 -3.14009e-06  -4.76416e-07 -4.86292e-07 -3.34418e-06  -1.4464e-06 -1.30908e-08 -3.63411e-06  1.74612e-06 -1.06867e-06 -3.6793e-06  9.93964e-07 -1.1818e-06 -3.51863e-06  6.75877e-07 -1.62181e-06 -3.47402e-06  -1.44548e-08 -1.4909e-06 -3.64375e-06  -9.03443e-07 -9.16485e-07 -3.66868e-06  
            </DataArray>
            <DataArray type="Float64" Name="Velocity" NumberOfComponents="3" format="ascii">
               3.86039e-07 4.24386e-07 -2.06493e-06  9.60954e-08 5.29045e-07 -2.36286e-06  -4.346e-07 3.76369e-07 -2.50987e-06  -4.14465e-07 4.16703e-07 -2.4722e-06  -3.53214e-07 9.99604e-07 -2.03434e-06  4.756e-07 1.14239e-07 -2.35547e-06  3.14931e-07 3.36231e-07 -2.66237e-06  -2.07762e-07 4.25618e-07 -2.93181e-06  -4.17293e-07 4.68489e-07 -2.87025e-06  -2.97065e-07 7.71279e-07 -2.2977e-06  3.36363e-07 -4.07127e-07 -2.49803e-06  4.1341e-07 -1.8105e-07 -2.93434e-06  -6.69624e-08 -6.55932e-08 -3.15184e-06  -4.30009e-07 1.31528e-07 -2.95408e-06  -2.75779e-07 4.02302e-07 -2.44904e-06  3.81781e-07 -4.12974e-07 -2.45305e-06  4.53517e-07 -4.174e-07 -2.87079e-06  1.43818e-07 -4.39908e-07 -2.94874e-06  -3.02517e-07 -3.15832e-07 -2.70281e-06  -4.42878e-07 -1.1747e-07 -2.33506e-06  9.6643e-07 -3.63978e-07 -2.02834e-06  7.63846e-07 -3.12708e-07 -2.31441e-06  4.16392e-07 -3.13055e-07 -2.46451e-06  -1.28255e-07 -4.89362e-07 -2.34948e-06  -4.50116e-07 -4.45362e-07 -2.01554e-06  
            </DataArray>
            <DataArray type="Float64" Name="Traction" NumberOfComponents="3" format="ascii">
               -6.18757e-06 -5.70722e-06 -2.30945e-05  -1.8456e-06 -1.04658e-05 -2.30945e-05  3.34733e-06 -1.12638e-05 -2.30945e-05  2.77768e-06 -7.27291e-06 -2.30945e-05  5.18043e-06 -1.04897e-05 -2.30945e-05  -1.04914e-05 -1.25005e-06 -2.30945e-05  -4.24775e-06 -4.1389e-06 -2.30945e-05  3.34774e-06 -6.31017e-06 -2.30945e-05  3.80079e-06 -4.19819e-06 -2.30945e-05  6.12127e-06 -5.47897e-06 -2.30945e-05  -1.16133e-05 3.80218e-06 -2.30945e-05  -6.6244e-06 3.31822e-06 -2.30945e-05  2.16663e-06 2.19483e-06 -2.30945e-05  6.32547e-06 -1.35724e-07 -2.30945e-05  1.10452e-05 -1.85489e-06 -2.30945e-05  -7.33333e-06 3.21011e-06 -2.30945e-05  -4.3478e-06 3.79445e-06 -2.30945e-05  -2.38668e-07 6.2457e-06 -2.30945e-05  3.6886e-06 3.8333e-06 -2.30945e-05  9.63635e-06 9.99157e-07 -2.30945e-05  -9.92901e-06 5.70629e-06 -2.30945e-05  -5.08008e-06 6.13522e-06 -2.30945e-05  -1.40589e-06 1.10107e-05 -2.30945e-05  1.61696e-06 1.00943e-05 -2.30945e-05  5.64638e-06 5.27676e-06 -2.30945e-05  
            </DataArray>
         </PointData> 
      </Piece>
   </UnstructuredGrid> 
</VTKFile>
