<?xml version="1.0"?>
<VTKFile type="UnstructuredGrid" version="0.1" byte_order="LittleEndian">
   <UnstructuredGrid>
      <Piece NumberOfPoints="25" NumberOfCells="0" > 
         <Points> 
            <DataArray type="Float64" Name="Position" NumberOfComponents="3" format="ascii"> 
               0  0  15  
               0.75  0  15  
               1.5  0  15  
               2.25  0  15  
               3  0  15  
               0  0.75  15  
               0.75  0.75  15  
               1.5  0.75  15  
               2.25  0.75  15  
               3  0.75  15  
               0  1.5  15  
               0.75  1.5  15  
               1.5  1.5  15  
               2.25  1.5  15  
               3  1.5  15  
               0  2.25  15  
               0.75  2.25  15  
               1.5  2.25  15  
               2.25  2.25  15  
               3  2.25  15  
               0  3  15  
               0.75  3  15  
               1.5  3  15  
               2.25  3  15  
               3  3  15  
            </DataArray>
         </Points> 

         <Cells>
            <DataArray type="Int32" Name="connectivity" NumberOfComponents="1" format="ascii">
               
            </DataArray> 
            <DataArray type="Int32" Name="offsets" NumberOfComponents="1" format="ascii">
               
            </DataArray>
            <DataArray type="UInt8"  Name="types" NumberOfComponents="1" format="ascii">
               
            </DataArray>
         </Cells>
         <PointData Scalars="Rank " Vectors="Displacement Velocity Traction ">
            <DataArray type="UInt32" Name="Rank" NumberOfComponents="1" format="ascii">
               0 0 0 0 0 0 0 0 0 0 0 0 0 0 0 0 0 0 0 0 0 0 0 0 0 
            </DataArray>
            <DataArray type="Float64" Name="Displacement" NumberOfComponents="3" format="ascii">
               2.22774e-05 8.30975e-06 -3.83756e-06  2.23099e-05 -5.5912e-07 -4.4287e-06  2.02113e-05 -1.188e-06 -4.72141e-06  1.76772e-05 2.30103e-06 -4.70475e-06  1.71572e-05 2.37053e-06 -3.82307e-06  4.33294e-06 7.97143e-06 -4.3943e-06  4.62033e-06 -1.98728e-07 -5.03397e-06  4.5178e-06 -7.51192e-07 -5.47575e-06  4.01809e-06 2.2948e-06 -5.42533e-06  4.11542e-06 1.36275e-06 -4.41259e-06  6.02683e-06 7.4288e-06 -4.68848e-06  4.99997e-06 3.97832e-07 -5.48384e-06  1.91079e-06 -1.86997e-06 -5.80025e-06  -1.27323e-06 2.1774e-06 -5.51606e-06  -2.59697e-06 -1.85045e-07 -4.62148e-06  5.2802e-06 6.57531e-06 -4.66213e-06  4.91455e-06 6.58602e-07 -5.42754e-06  4.6169e-06 -3.44425e-06 -5.51418e-06  5.00912e-06 2.24176e-06 -5.10237e-06  4.63957e-06 1.08081e-06 -4.38824e-06  -4.14122e-06 6.1109e-06 -3.80666e-06  -4.5288e-06 6.57233e-07 -4.44256e-06  -5.79554e-06 -4.45703e-06 -4.64822e-06  -4.49226e-06 1.33048e-06 -4.39819e-06  -2.70025e-06 2.5096e-06 -3.77885e-06  
            </DataArray>
            <DataArray type="Float64" Name="Velocity" NumberOfComponents="3" format="ascii">
               2.43089e-05 6.15837e-06 2.35234e-06  2.44976e-05 -6.76207e-08 1.52119e-06  2.30242e-05 1.60479e-06 8.68154e-07  2.09396e-05 3.6533e-06 1.07341e-06  2.05775e-05 2.36369e-06 2.32128e-06  7.84595e-06 6.51871e-06 1.58832e-06  8.08034e-06 3.81617e-07 9.20012e-08  8.70148e-06 1.28561e-06 -7.24929e-07  9.28466e-06 2.9957e-06 -9.56152e-08  9.86324e-06 1.53031e-06 1.16691e-06  8.39585e-06 6.72319e-06 9.19545e-07  7.39057e-06 9.68272e-07 -7.35818e-07  5.12038e-06 -7.46578e-07 -1.75967e-06  3.30965e-06 1.72818e-06 -7.32152e-07  2.85282e-06 -1.06874e-07 9.13227e-07  6.6605e-06 6.18579e-06 1.11876e-06  6.43371e-06 8.94259e-07 -9.98391e-08  6.68258e-06 -2.71975e-06 -7.4655e-07  7.64097e-06 1.27496e-06 8.01203e-08  7.61673e-06 7.00632e-07 1.50846e-06  1.01919e-06 6.04402e-06 2.35024e-06  1.09486e-06 4.3937e-07 1.15562e-06  1.21686e-06 -4.29995e-06 9.09608e-07  3.41444e-06 3.73436e-07 1.54634e-06  5.13371e-06 2.16992e-06 2.32052e-06  
            </DataArray>
            <DataArray type="Float64" Name="Traction" NumberOfComponents="3" format="ascii">
               0.000336857 0.000340363 0.000337298  -0.000147182 0.000207496 0.000337298  -1.48467e-05 0.000134981 0.000337298  8.20534e-05 0.000277789 0.000337298  -0.00042336 0.000421959 0.000337298  0.000464914 -0.000125061 0.000337298  5.97398e-05 -6.02492e-07 0.000337298  3.43748e-05 0.000125211 0.000337298  6.006e-05 4.00709e-05 0.000337298  -0.000464976 1.99901e-06 0.000337298  0.000509561 -8.89435e-06 0.000337298  0.000146048 1.99041e-05 0.000337298  4.08524e-05 2.06695e-05 0.000337298  2.32909e-05 1.0844e-05 0.000337298  -0.000597697 -1.45601e-05 0.000337298  0.000510609 8.56193e-05 0.000337298  4.61278e-05 3.0432e-05 0.000337298  2.72413e-05 -6.79214e-05 0.000337298  5.91913e-05 -1.80451e-05 0.000337298  -9.83254e-05 -7.72192e-05 0.000337298  0.000530525 -0.00047936 0.000337298  -3.66665e-06 -0.000395206 0.000337298  5.14145e-05 -0.00040569 0.000337298  4.33349e-05 -4.21254e-05 0.000337298  0.000367938 0.000287576 0.000337298  
            </DataArray>
         </PointData> 
      </Piece>
   </UnstructuredGrid> 
</VTKFile>
