<?xml version="1.0"?>
<VTKFile type="UnstructuredGrid" version="0.1" byte_order="LittleEndian">
   <UnstructuredGrid>
      <Piece NumberOfPoints="25" NumberOfCells="0" > 
         <Points> 
            <DataArray type="Float64" Name="Position" NumberOfComponents="3" format="ascii"> 
               0  0  20  
               0.75  0  20  
               1.5  0  20  
               2.25  0  20  
               3  0  20  
               0  0.75  20  
               0.75  0.75  20  
               1.5  0.75  20  
               2.25  0.75  20  
               3  0.75  20  
               0  1.5  20  
               0.75  1.5  20  
               1.5  1.5  20  
               2.25  1.5  20  
               3  1.5  20  
               0  2.25  20  
               0.75  2.25  20  
               1.5  2.25  20  
               2.25  2.25  20  
               3  2.25  20  
               0  3  20  
               0.75  3  20  
               1.5  3  20  
               2.25  3  20  
               3  3  20  
            </DataArray>
         </Points> 

         <Cells>
            <DataArray type="Int32" Name="connectivity" NumberOfComponents="1" format="ascii">
               
            </DataArray> 
            <DataArray type="Int32" Name="offsets" NumberOfComponents="1" format="ascii">
               
            </DataArray>
            <DataArray type="UInt8"  Name="types" NumberOfComponents="1" format="ascii">
               
            </DataArray>
         </Cells>
         <PointData Scalars="Rank " Vectors="Displacement Velocity Traction ">
            <DataArray type="UInt32" Name="Rank" NumberOfComponents="1" format="ascii">
               0 0 0 0 0 0 0 0 0 0 0 0 0 0 0 0 0 0 0 0 0 0 0 0 0 
            </DataArray>
            <DataArray type="Float64" Name="Displacement" NumberOfComponents="3" format="ascii">
               3.27817e-07 3.2675e-07 -1.29886e-06  -1.7435e-08 6.02177e-07 -1.20026e-06  -1.67916e-07 7.48172e-07 -1.09081e-06  -1.4742e-07 5.1624e-07 -1.17347e-06  -4.16004e-07 5.73462e-07 -1.30405e-06  6.03482e-07 -1.69222e-08 -1.20055e-06  1.59522e-07 1.60126e-07 -9.55112e-07  -3.62815e-08 2.71297e-07 -7.76125e-07  -1.38611e-07 1.4092e-07 -9.71445e-07  -5.08328e-07 2.48101e-07 -1.16518e-06  7.46433e-07 -1.66897e-07 -1.09057e-06  2.71171e-07 -3.45252e-08 -7.76113e-07  1.9566e-08 1.91893e-08 -5.07576e-07  -2.3945e-07 3.58945e-08 -7.80663e-07  -7.23639e-07 1.72068e-07 -1.09289e-06  5.1376e-07 -1.47412e-07 -1.17276e-06  1.40361e-07 -1.3938e-07 -9.71652e-07  3.7348e-08 -2.40313e-07 -7.80476e-07  -1.48063e-07 -1.48579e-07 -9.59734e-07  -5.91168e-07 4.8274e-09 -1.19922e-06  5.73054e-07 -4.16995e-07 -1.30335e-06  2.48109e-07 -5.09062e-07 -1.16578e-06  1.74676e-07 -7.26526e-07 -1.09375e-06  4.6596e-09 -5.97855e-07 -1.20008e-06  -3.33687e-07 -3.37469e-07 -1.30038e-06  
            </DataArray>
            <DataArray type="Float64" Name="Velocity" NumberOfComponents="3" format="ascii">
               4.73717e-07 4.73091e-07 -1.97729e-06  -4.13056e-08 8.80574e-07 -1.89072e-06  -3.65826e-07 1.02847e-06 -1.74533e-06  -3.05357e-07 7.14589e-07 -1.83733e-06  -6.2078e-07 9.54077e-07 -1.99396e-06  8.82088e-07 -3.99827e-08 -1.89157e-06  2.77032e-07 2.78655e-07 -1.5998e-06  -7.69868e-08 4.47803e-07 -1.42444e-06  -2.48171e-07 2.64343e-07 -1.65044e-06  -6.93946e-07 5.03873e-07 -1.80627e-06  1.02319e-06 -3.62617e-07 -1.74432e-06  4.4722e-07 -7.1679e-08 -1.42436e-06  2.2948e-08 2.20035e-08 -1.14842e-06  -3.93628e-07 7.2954e-08 -1.43461e-06  -9.77518e-07 3.64375e-07 -1.74489e-06  7.07111e-07 -3.05428e-07 -1.83478e-06  2.62526e-07 -2.50295e-07 -1.65098e-06  7.69841e-08 -3.96493e-07 -1.43366e-06  -2.52931e-07 -2.55492e-07 -1.61209e-06  -8.50658e-07 2.05001e-08 -1.88591e-06  9.51511e-07 -6.23191e-07 -1.99187e-06  5.04066e-07 -6.96366e-07 -1.80835e-06  3.71231e-07 -9.86157e-07 -1.74736e-06  2.08499e-08 -8.68881e-07 -1.88871e-06  -4.89351e-07 -4.98397e-07 -1.98095e-06  
            </DataArray>
            <DataArray type="Float64" Name="Traction" NumberOfComponents="3" format="ascii">
               0 0 0  0 0 0  0 0 0  0 0 0  0 0 0  0 0 0  0 0 0  0 0 0  0 0 0  0 0 0  0 0 0  0 0 0  0 0 0  0 0 0  0 0 0  0 0 0  0 0 0  0 0 0  0 0 0  0 0 0  0 0 0  0 0 0  0 0 0  0 0 0  0 0 0  
            </DataArray>
         </PointData> 
      </Piece>
   </UnstructuredGrid> 
</VTKFile>
