<?xml version="1.0"?>
<VTKFile type="UnstructuredGrid" version="0.1" byte_order="LittleEndian">
   <UnstructuredGrid>
      <Piece NumberOfPoints="25" NumberOfCells="0" > 
         <Points> 
            <DataArray type="Float64" Name="Position" NumberOfComponents="3" format="ascii"> 
               0  0  15  
               0.75  0  15  
               1.5  0  15  
               2.25  0  15  
               3  0  15  
               0  0.75  15  
               0.75  0.75  15  
               1.5  0.75  15  
               2.25  0.75  15  
               3  0.75  15  
               0  1.5  15  
               0.75  1.5  15  
               1.5  1.5  15  
               2.25  1.5  15  
               3  1.5  15  
               0  2.25  15  
               0.75  2.25  15  
               1.5  2.25  15  
               2.25  2.25  15  
               3  2.25  15  
               0  3  15  
               0.75  3  15  
               1.5  3  15  
               2.25  3  15  
               3  3  15  
            </DataArray>
         </Points> 

         <Cells>
            <DataArray type="Int32" Name="connectivity" NumberOfComponents="1" format="ascii">
               
            </DataArray> 
            <DataArray type="Int32" Name="offsets" NumberOfComponents="1" format="ascii">
               
            </DataArray>
            <DataArray type="UInt8"  Name="types" NumberOfComponents="1" format="ascii">
               
            </DataArray>
         </Cells>
         <PointData Scalars="Rank " Vectors="Displacement Velocity Traction ">
            <DataArray type="UInt32" Name="Rank" NumberOfComponents="1" format="ascii">
               0 0 0 0 0 0 0 0 0 0 0 0 0 0 0 0 0 0 0 0 0 0 0 0 0 
            </DataArray>
            <DataArray type="Float64" Name="Displacement" NumberOfComponents="3" format="ascii">
               0.00176049 0.00215532 -0.0190213  0.00139116 0.000432424 -0.0182186  0.000916352 -0.000289705 -0.0171537  0.000546315 -0.000543365 -0.0182629  0.000247411 -0.00135314 -0.0190192  -1.87024e-05 0.00178317 -0.0182215  -0.000348517 9.6164e-05 -0.0156679  -0.000886343 -0.000413371 -0.0134787  -0.00130709 -0.000788049 -0.0160899  -0.00147217 -0.00186912 -0.0180035  -0.000711414 0.00130851 -0.0171467  -0.000831688 -0.000458473 -0.0134743  -0.00116619 -0.000757107 -0.00983397  -0.00153782 -0.00121191 -0.0135514  -0.00162869 -0.00257679 -0.0171174  -0.000998434 0.000937019 -0.0182476  -0.00123703 -0.000891248 -0.0160825  -0.00165292 -0.00113112 -0.0135477  -0.00216712 -0.00172949 -0.015795  -0.00248241 -0.00319782 -0.0181844  -0.00185934 0.000634999 -0.0189932  -0.00236823 -0.00105873 -0.0179914  -0.00306689 -0.00122045 -0.0171092  -0.00368248 -0.00204584 -0.0181815  -0.00406847 -0.00358583 -0.0188987  
            </DataArray>
            <DataArray type="Float64" Name="Velocity" NumberOfComponents="3" format="ascii">
               -0.000838491 -0.000713079 -0.0412762  -0.00143706 0.000895465 -0.0382323  -0.00114763 0.0011336 -0.035112  -0.000371621 0.000400349 -0.0382876  -0.000564813 0.00176972 -0.0412695  0.000783376 -0.00131651 -0.0382583  -0.000123916 -1.33549e-05 -0.030755  -0.000370565 0.000161842 -0.023922  -0.000358095 -0.000356816 -0.0311845  -0.000945471 0.0010749 -0.0379968  0.00103764 -0.00103046 -0.0351339  6.33666e-05 -0.000259244 -0.0239193  -6.34296e-05 4.22194e-05 -0.0130625  -0.000342711 -0.000269812 -0.0240151  -0.00126645 0.00102515 -0.0350758  0.000299027 -0.000253251 -0.0382988  -0.000460467 -0.000243783 -0.0311762  -0.000382846 -0.000233547 -0.0240121  -0.000570946 -0.000452034 -0.030918  -0.00143702 0.000886658 -0.0381672  0.00165215 -0.000446679 -0.0413083  0.000955751 -0.000826182 -0.0380111  0.000893138 -0.00115079 -0.0350965  0.00074365 -0.00131601 -0.0381904  8.04666e-05 0.000222779 -0.0410852  
            </DataArray>
            <DataArray type="Float64" Name="Traction" NumberOfComponents="3" format="ascii">
               0.0303261 0.0314665 0.232606  0.00968839 0.0226989 0.232606  -0.00747885 0.0115572 0.232606  -0.0364649 0.0269505 0.232606  -0.0532475 0.0391966 0.232606  0.0229767 0.0111295 0.232606  0.010602 0.0117731 0.232606  0.0117217 0.00279707 0.232606  -0.0196686 0.0133127 0.232606  -0.0336679 0.0258365 0.232606  0.0123978 -0.00644195 0.232606  0.00131495 0.0125836 0.232606  0.0173887 0.0185016 0.232606  -0.00943362 0.0100152 0.232606  -0.0166941 0.0119153 0.232606  0.027743 -0.0359482 0.232606  0.0127338 -0.019053 0.232606  0.00928514 -0.00849458 0.232606  -0.0175946 -0.0166829 0.232606  -0.0242677 -0.0171791 0.232606  0.0403133 -0.0534157 0.232606  0.0259139 -0.0328585 0.232606  0.0115975 -0.0151988 0.232606  -0.0179279 -0.023227 0.232606  -0.0295866 -0.0286615 0.232606  
            </DataArray>
         </PointData> 
      </Piece>
   </UnstructuredGrid> 
</VTKFile>
