<?xml version="1.0"?>
<VTKFile type="UnstructuredGrid" version="0.1" byte_order="LittleEndian">
   <UnstructuredGrid>
      <Piece NumberOfPoints="25" NumberOfCells="0" > 
         <Points> 
            <DataArray type="Float64" Name="Position" NumberOfComponents="3" format="ascii"> 
               0  0  20  
               0.75  0  20  
               1.5  0  20  
               2.25  0  20  
               3  0  20  
               0  0.75  20  
               0.75  0.75  20  
               1.5  0.75  20  
               2.25  0.75  20  
               3  0.75  20  
               0  1.5  20  
               0.75  1.5  20  
               1.5  1.5  20  
               2.25  1.5  20  
               3  1.5  20  
               0  2.25  20  
               0.75  2.25  20  
               1.5  2.25  20  
               2.25  2.25  20  
               3  2.25  20  
               0  3  20  
               0.75  3  20  
               1.5  3  20  
               2.25  3  20  
               3  3  20  
            </DataArray>
         </Points> 

         <Cells>
            <DataArray type="Int32" Name="connectivity" NumberOfComponents="1" format="ascii">
               
            </DataArray> 
            <DataArray type="Int32" Name="offsets" NumberOfComponents="1" format="ascii">
               
            </DataArray>
            <DataArray type="UInt8"  Name="types" NumberOfComponents="1" format="ascii">
               
            </DataArray>
         </Cells>
         <PointData Scalars="Rank " Vectors="Displacement Velocity Traction ">
            <DataArray type="UInt32" Name="Rank" NumberOfComponents="1" format="ascii">
               0 0 0 0 0 0 0 0 0 0 0 0 0 0 0 0 0 0 0 0 0 0 0 0 0 
            </DataArray>
            <DataArray type="Float64" Name="Displacement" NumberOfComponents="3" format="ascii">
               1.77436e-07 1.76861e-07 -6.77332e-07  -5.04252e-09 3.21155e-07 -6.1546e-07  -6.39204e-08 4.12588e-07 -5.55592e-07  -5.97782e-08 2.85041e-07 -6.05179e-07  -2.18113e-07 2.80547e-07 -6.77625e-07  3.21761e-07 -4.86018e-09 -6.15541e-07  7.56413e-08 7.58413e-08 -4.73312e-07  -1.45764e-08 1.32856e-07 -3.60616e-07  -6.53389e-08 6.44284e-08 -4.77334e-07  -2.82231e-07 1.02161e-07 -6.03706e-07  4.12098e-07 -6.3647e-08 -5.5556e-07  1.32843e-07 -1.4098e-08 -3.6062e-07  1.05771e-08 1.04524e-08 -1.92178e-07  -1.18312e-07 1.47926e-08 -3.62313e-07  -4.02476e-07 6.71878e-08 -5.57059e-07  2.84362e-07 -5.97691e-08 -6.05024e-07  6.42875e-08 -6.5567e-08 -4.77399e-07  1.52348e-08 -1.18519e-07 -3.62309e-07  -7.11277e-08 -7.11507e-08 -4.74796e-07  -3.17796e-07 -8.6457e-10 -6.15416e-07  2.80587e-07 -2.18457e-07 -6.77435e-07  1.02138e-07 -2.82416e-07 -6.03849e-07  6.80346e-08 -4.03288e-07 -5.57316e-07  -1.03027e-09 -3.19855e-07 -6.15629e-07  -1.7909e-07 -1.80391e-07 -6.77603e-07  
            </DataArray>
            <DataArray type="Float64" Name="Velocity" NumberOfComponents="3" format="ascii">
               3.33442e-07 3.31934e-07 -1.35731e-06  -2.35819e-08 6.23311e-07 -1.25432e-06  -1.95037e-07 7.63497e-07 -1.13859e-06  -1.68105e-07 5.22884e-07 -1.22155e-06  -4.37505e-07 6.18626e-07 -1.36511e-06  6.25062e-07 -2.30222e-08 -1.25466e-06  1.73814e-07 1.74478e-07 -1.00293e-06  -4.13336e-08 2.94398e-07 -8.29734e-07  -1.48312e-07 1.50689e-07 -1.02104e-06  -5.14516e-07 2.84046e-07 -1.21313e-06  7.61648e-07 -1.9397e-07 -1.13838e-06  2.94287e-07 -3.94321e-08 -8.29723e-07  2.32867e-08 2.28539e-08 -5.75632e-07  -2.56968e-07 4.12493e-08 -8.34972e-07  -7.35823e-07 2.00161e-07 -1.14138e-06  5.20202e-07 -1.68073e-07 -1.22083e-06  1.50101e-07 -1.49178e-07 -1.02128e-06  4.2862e-08 -2.57864e-07 -8.34814e-07  -1.60526e-07 -1.6096e-07 -1.00806e-06  -6.1092e-07 8.82809e-09 -1.25334e-06  6.18353e-07 -4.38644e-07 -1.36435e-06  2.84039e-07 -5.15271e-07 -1.21374e-06  2.03067e-07 -7.38927e-07 -1.14232e-06  8.57342e-09 -6.18378e-07 -1.25423e-06  -3.40542e-07 -3.44942e-07 -1.35957e-06  
            </DataArray>
            <DataArray type="Float64" Name="Traction" NumberOfComponents="3" format="ascii">
               0 0 0  0 0 0  0 0 0  0 0 0  0 0 0  0 0 0  0 0 0  0 0 0  0 0 0  0 0 0  0 0 0  0 0 0  0 0 0  0 0 0  0 0 0  0 0 0  0 0 0  0 0 0  0 0 0  0 0 0  0 0 0  0 0 0  0 0 0  0 0 0  0 0 0  
            </DataArray>
         </PointData> 
      </Piece>
   </UnstructuredGrid> 
</VTKFile>
