<?xml version="1.0"?>
<VTKFile type="UnstructuredGrid" version="0.1" byte_order="LittleEndian">
   <UnstructuredGrid>
      <Piece NumberOfPoints="25" NumberOfCells="0" > 
         <Points> 
            <DataArray type="Float64" Name="Position" NumberOfComponents="3" format="ascii"> 
               0  0  15  
               0.75  0  15  
               1.5  0  15  
               2.25  0  15  
               3  0  15  
               0  0.75  15  
               0.75  0.75  15  
               1.5  0.75  15  
               2.25  0.75  15  
               3  0.75  15  
               0  1.5  15  
               0.75  1.5  15  
               1.5  1.5  15  
               2.25  1.5  15  
               3  1.5  15  
               0  2.25  15  
               0.75  2.25  15  
               1.5  2.25  15  
               2.25  2.25  15  
               3  2.25  15  
               0  3  15  
               0.75  3  15  
               1.5  3  15  
               2.25  3  15  
               3  3  15  
            </DataArray>
         </Points> 

         <Cells>
            <DataArray type="Int32" Name="connectivity" NumberOfComponents="1" format="ascii">
               
            </DataArray> 
            <DataArray type="Int32" Name="offsets" NumberOfComponents="1" format="ascii">
               
            </DataArray>
            <DataArray type="UInt8"  Name="types" NumberOfComponents="1" format="ascii">
               
            </DataArray>
         </Cells>
         <PointData Scalars="Rank " Vectors="Displacement Velocity Traction ">
            <DataArray type="UInt32" Name="Rank" NumberOfComponents="1" format="ascii">
               0 0 0 0 0 0 0 0 0 0 0 0 0 0 0 0 0 0 0 0 0 0 0 0 0 
            </DataArray>
            <DataArray type="Float64" Name="Displacement" NumberOfComponents="3" format="ascii">
               0.000644985 0.000563878 -0.000271685  0.00061566 9.93997e-05 -0.000259217  0.000500811 -1.42579e-05 -0.000241363  0.00036657 -5.0483e-05 -0.000255475  0.000317488 -0.000330256 -0.000266962  0.000115484 0.000536142 -0.000260335  0.000118389 0.000100687 -0.00022106  6.01538e-05 1.79869e-05 -0.000193367  7.47346e-06 -5.18318e-05 -0.000228445  1.81007e-05 -0.000377064 -0.000249023  -2.22671e-05 0.000429737 -0.00024336  1.26494e-05 3.06522e-05 -0.000193744  -4.30653e-05 -5.22044e-05 -0.000147702  -8.93437e-05 -0.000138369 -0.000194535  -4.89542e-05 -0.000499538 -0.000238999  -7.74464e-05 0.00030294 -0.000257559  -6.97392e-05 -3.97863e-05 -0.00022851  -0.000130586 -0.000116333 -0.000194494  -0.00018806 -0.000222797 -0.000222538  -0.000184205 -0.000596344 -0.000255877  -0.000330223 0.000255896 -0.00027121  -0.000369378 -4.25971e-05 -0.000250361  -0.000469894 -9.53641e-05 -0.000240295  -0.00054244 -0.000236003 -0.000257364  -0.000555069 -0.00061873 -0.000266256  
            </DataArray>
            <DataArray type="Float64" Name="Velocity" NumberOfComponents="3" format="ascii">
               0.000330106 0.000381199 -0.000336803  0.000305898 3.71198e-05 -0.000332577  0.000218907 -7.41339e-05 -0.000316326  0.000117599 -7.84213e-05 -0.000331955  7.87792e-05 -0.000282692 -0.000335698  -2.67833e-05 0.000356102 -0.000331589  -2.81268e-05 3.51295e-05 -0.000298935  -9.21712e-05 -3.94134e-05 -0.000273713  -0.000154534 -7.35492e-05 -0.000310932  -0.000151711 -0.000322492 -0.000323247  -0.000131115 0.000270828 -0.00031629  -9.823e-05 -2.95592e-05 -0.000274203  -0.000138013 -7.79307e-05 -0.000228164  -0.000176086 -0.000136617 -0.000274797  -0.00014296 -0.000422068 -0.000313083  -0.000135442 0.000171146 -0.000332912  -0.000132099 -9.02288e-05 -0.000311685  -0.000197191 -0.000113864 -0.000275128  -0.000262793 -0.000202086 -0.000301207  -0.000264269 -0.000505121 -0.000329013  -0.000347416 0.000132247 -0.000337118  -0.000386346 -8.59213e-05 -0.000323695  -0.000484874 -7.93029e-05 -0.000313447  -0.000566366 -0.0002048 -0.000328991  -0.000588617 -0.000529301 -0.00033189  
            </DataArray>
            <DataArray type="Float64" Name="Traction" NumberOfComponents="3" format="ascii">
               0.0103318 0.0107553 -0.0260602  0.000764674 0.0123722 -0.0260602  -0.0024779 0.012909 -0.0260602  -0.00567014 0.0134071 -0.0260602  -0.0153885 0.0141791 -0.0260602  0.0130521 0.00134282 -0.0260602  0.00304571 0.00394583 -0.0260602  -0.000616806 0.0045416 -0.0260602  -0.00437574 0.00395216 -0.0260602  -0.0132712 0.00501663 -0.0260602  0.0131797 -0.00234141 -0.0260602  0.0029949 -0.000117563 -0.0260602  -0.000976598 -0.000405316 -0.0260602  -0.0053464 -0.000772527 -0.0260602  -0.0141188 0.00108904 -0.0260602  0.0131865 -0.00564171 -0.0260602  0.00266188 -0.00443222 -0.0260602  -0.00126127 -0.00566922 -0.0260602  -0.00545781 -0.005887 -0.0260602  -0.0110672 -0.00469827 -0.0260602  0.0139946 -0.0161431 -0.0260602  0.00384638 -0.0131332 -0.0260602  0.000897073 -0.0135526 -0.0260602  -0.00416427 -0.0116272 -0.0260602  -0.00662301 -0.0071397 -0.0260602  
            </DataArray>
         </PointData> 
      </Piece>
   </UnstructuredGrid> 
</VTKFile>
