<?xml version="1.0"?>
<VTKFile type="UnstructuredGrid" version="0.1" byte_order="LittleEndian">
   <UnstructuredGrid>
      <Piece NumberOfPoints="25" NumberOfCells="0" > 
         <Points> 
            <DataArray type="Float64" Name="Position" NumberOfComponents="3" format="ascii"> 
               0  0  20  
               0.75  0  20  
               1.5  0  20  
               2.25  0  20  
               3  0  20  
               0  0.75  20  
               0.75  0.75  20  
               1.5  0.75  20  
               2.25  0.75  20  
               3  0.75  20  
               0  1.5  20  
               0.75  1.5  20  
               1.5  1.5  20  
               2.25  1.5  20  
               3  1.5  20  
               0  2.25  20  
               0.75  2.25  20  
               1.5  2.25  20  
               2.25  2.25  20  
               3  2.25  20  
               0  3  20  
               0.75  3  20  
               1.5  3  20  
               2.25  3  20  
               3  3  20  
            </DataArray>
         </Points> 

         <Cells>
            <DataArray type="Int32" Name="connectivity" NumberOfComponents="1" format="ascii">
               
            </DataArray> 
            <DataArray type="Int32" Name="offsets" NumberOfComponents="1" format="ascii">
               
            </DataArray>
            <DataArray type="UInt8"  Name="types" NumberOfComponents="1" format="ascii">
               
            </DataArray>
         </Cells>
         <PointData Scalars="Rank " Vectors="Displacement Velocity Traction ">
            <DataArray type="UInt32" Name="Rank" NumberOfComponents="1" format="ascii">
               0 0 0 0 0 0 0 0 0 0 0 0 0 0 0 0 0 0 0 0 0 0 0 0 0 
            </DataArray>
            <DataArray type="Float64" Name="Displacement" NumberOfComponents="3" format="ascii">
               -3.21372e-07 -2.12945e-07 -1.92221e-06  5.54238e-07 -9.13306e-07 -2.93192e-06  2.88026e-07 -1.27405e-06 -3.54352e-06  1.76273e-07 -6.19599e-07 -3.43021e-06  1.05371e-06 -1.75923e-07 -1.95635e-06  -1.1615e-06 6.20635e-07 -2.85206e-06  -3.83735e-08 8.09364e-08 -4.29083e-06  -3.28789e-07 -1.07416e-07 -5.10307e-06  -3.32125e-07 3.191e-07 -4.71489e-06  8.19241e-07 3.29452e-07 -3.15923e-06  -1.4502e-06 4.06723e-07 -3.47063e-06  -2.0271e-07 -2.35424e-07 -5.11506e-06  -2.8137e-07 -2.15184e-07 -5.96151e-06  -1.5543e-07 7.91078e-08 -5.14158e-06  1.24541e-06 -3.18526e-07 -3.45453e-06  -7.49976e-07 2.19613e-07 -3.35698e-06  2.2036e-07 -2.77793e-07 -4.72153e-06  2.20827e-08 -7.93031e-08 -5.15134e-06  -1.81174e-07 -7.8952e-08 -4.35048e-06  8.7137e-07 -5.71371e-07 -2.92969e-06  -3.482e-07 1.05267e-06 -1.90327e-06  1.84718e-07 8.5411e-07 -3.1816e-06  -4.19354e-07 1.29336e-06 -3.46523e-06  -7.38018e-07 9.45907e-07 -2.89437e-06  -2.09217e-09 1.83762e-07 -1.94348e-06  
            </DataArray>
            <DataArray type="Float64" Name="Velocity" NumberOfComponents="3" format="ascii">
               -2.17011e-06 -2.17296e-06 4.78302e-06  4.71784e-07 -3.70851e-06 4.12816e-06  1.85049e-06 -3.82417e-06 3.60558e-06  1.68432e-06 -2.83803e-06 3.75749e-06  3.16093e-06 -3.98945e-06 4.68517e-06  -3.86693e-06 4.68612e-07 4.21634e-06  -1.23159e-06 -1.14562e-06 2.78327e-06  1.90257e-07 -1.74677e-06 2.24729e-06  9.93963e-07 -1.16181e-06 2.87271e-06  2.74271e-06 -2.09407e-06 3.57493e-06  -3.96126e-06 1.91264e-06 3.69764e-06  -1.85029e-06 2.3737e-07 2.24835e-06  -2.1387e-07 -1.13268e-07 1.30468e-06  1.34074e-06 -2.75781e-07 2.26214e-06  3.4292e-06 -1.73071e-06 3.50088e-06  -2.96179e-06 1.74118e-06 3.82848e-06  -1.28354e-06 1.07393e-06 2.86154e-06  -4.21169e-07 1.51083e-06 2.23525e-06  8.43258e-07 1.07566e-06 2.82975e-06  3.28739e-06 -3.75991e-07 3.98191e-06  -4.19508e-06 3.21704e-06 4.79733e-06  -2.33301e-06 2.87489e-06 3.61288e-06  -1.9466e-06 3.66576e-06 3.57184e-06  -5.97234e-07 3.58001e-06 4.11677e-06  1.8685e-06 2.13873e-06 4.5339e-06  
            </DataArray>
            <DataArray type="Float64" Name="Traction" NumberOfComponents="3" format="ascii">
               0 0 0  0 0 0  0 0 0  0 0 0  0 0 0  0 0 0  0 0 0  0 0 0  0 0 0  0 0 0  0 0 0  0 0 0  0 0 0  0 0 0  0 0 0  0 0 0  0 0 0  0 0 0  0 0 0  0 0 0  0 0 0  0 0 0  0 0 0  0 0 0  0 0 0  
            </DataArray>
         </PointData> 
      </Piece>
   </UnstructuredGrid> 
</VTKFile>
