<?xml version="1.0"?>
<VTKFile type="UnstructuredGrid" version="0.1" byte_order="LittleEndian">
   <UnstructuredGrid>
      <Piece NumberOfPoints="25" NumberOfCells="0" > 
         <Points> 
            <DataArray type="Float64" Name="Position" NumberOfComponents="3" format="ascii"> 
               0  0  20  
               0.75  0  20  
               1.5  0  20  
               2.25  0  20  
               3  0  20  
               0  0.75  20  
               0.75  0.75  20  
               1.5  0.75  20  
               2.25  0.75  20  
               3  0.75  20  
               0  1.5  20  
               0.75  1.5  20  
               1.5  1.5  20  
               2.25  1.5  20  
               3  1.5  20  
               0  2.25  20  
               0.75  2.25  20  
               1.5  2.25  20  
               2.25  2.25  20  
               3  2.25  20  
               0  3  20  
               0.75  3  20  
               1.5  3  20  
               2.25  3  20  
               3  3  20  
            </DataArray>
         </Points> 

         <Cells>
            <DataArray type="Int32" Name="connectivity" NumberOfComponents="1" format="ascii">
               
            </DataArray> 
            <DataArray type="Int32" Name="offsets" NumberOfComponents="1" format="ascii">
               
            </DataArray>
            <DataArray type="UInt8"  Name="types" NumberOfComponents="1" format="ascii">
               
            </DataArray>
         </Cells>
         <PointData Scalars="Rank " Vectors="Displacement Velocity Traction ">
            <DataArray type="UInt32" Name="Rank" NumberOfComponents="1" format="ascii">
               0 0 0 0 0 0 0 0 0 0 0 0 0 0 0 0 0 0 0 0 0 0 0 0 0 
            </DataArray>
            <DataArray type="Float64" Name="Displacement" NumberOfComponents="3" format="ascii">
               0.0012309 0.001226 -0.00559756  8.11003e-05 0.00205833 -0.00555866  -0.000600749 0.00245243 -0.00535809  -0.000582477 0.00178082 -0.00559304  -0.00132703 0.00217085 -0.0056275  0.00204505 7.46536e-05 -0.00554879  0.000628706 0.000637425 -0.0050817  -0.000199248 0.00100474 -0.00470226  -0.000644263 0.000671195 -0.00527417  -0.00172377 0.00110509 -0.00548505  0.00243455 -0.000599813 -0.00534334  0.000992401 -0.000199496 -0.00470046  -6.23617e-06 -3.80932e-06 -0.00398974  -0.000949507 0.000151293 -0.00473015  -0.00237635 0.000602448 -0.00534839  0.00175849 -0.000562667 -0.00557728  0.000657851 -0.000634883 -0.00527282  0.000147075 -0.00093848 -0.00472906  -0.000605395 -0.000592658 -0.00513311  -0.00200953 -0.000132174 -0.00555629  0.00214499 -0.00129723 -0.00559208  0.00108507 -0.00170315 -0.00547052  0.000597501 -0.0023576 -0.00533374  -0.000129255 -0.00198907 -0.00554347  -0.00126568 -0.00126603 -0.00556993  
            </DataArray>
            <DataArray type="Float64" Name="Velocity" NumberOfComponents="3" format="ascii">
               0.00147132 0.00145105 -0.00636587  9.52382e-05 0.0024374 -0.00619493  -0.000576752 0.00296766 -0.00591295  -0.000559344 0.00213522 -0.006217  -0.00153762 0.00238399 -0.00635385  0.0024537 7.71783e-05 -0.00620163  0.000709 0.00069492 -0.00549924  -0.000164859 0.0011094 -0.00493476  -0.000649905 0.000705649 -0.00567843  -0.0020429 0.00110541 -0.00610856  0.00297839 -0.000594079 -0.0059127  0.00112036 -0.000179628 -0.00493157  3.19131e-05 1.90072e-05 -0.00394991  -0.00101052 0.000154764 -0.00496691  -0.00285203 0.00061605 -0.00589562  0.00213706 -0.000571403 -0.00620992  0.000712431 -0.000661954 -0.00567249  0.000165444 -0.00102035 -0.00496409  -0.000628586 -0.000637012 -0.00555473  -0.00235391 -0.000118715 -0.00618255  0.00238373 -0.00154134 -0.00634451  0.00111037 -0.00205063 -0.00610341  0.000625197 -0.00285986 -0.00589389  -0.000104695 -0.00235925 -0.0061855  -0.00145132 -0.00146737 -0.00631389  
            </DataArray>
            <DataArray type="Float64" Name="Traction" NumberOfComponents="3" format="ascii">
               -0.00716314 -0.00724366 -0.0775034  -0.00150276 -0.0141838 -0.0775034  0.00459961 -0.0167839 -0.0775034  0.00353362 -0.0108204 -0.0775034  0.00676589 -0.0120923 -0.0775034  -0.0140139 -0.00154814 -0.0775034  -0.00559517 -0.00569888 -0.0775034  0.00491388 -0.00896373 -0.0775034  0.00555691 -0.00573403 -0.0775034  0.00981873 -0.00606989 -0.0775034  -0.0166024 0.00458921 -0.0775034  -0.00886841 0.00492617 -0.0775034  0.00408872 0.0041088 -0.0775034  0.00869189 0.0013013 -0.0775034  0.0161109 -0.00107629 -0.0775034  -0.0106196 0.0033228 -0.0775034  -0.00565568 0.00544612 -0.0775034  0.00126863 0.00859538 -0.0775034  0.00554605 0.00546914 -0.0775034  0.0135679 0.00198281 -0.0775034  -0.0118409 0.00640597 -0.0775034  -0.00595787 0.00957539 -0.0775034  -0.00111946 0.0159057 -0.0775034  0.00195154 0.0133875 -0.0775034  0.007393 0.00735339 -0.0775034  
            </DataArray>
         </PointData> 
      </Piece>
   </UnstructuredGrid> 
</VTKFile>
