<?xml version="1.0"?>
<VTKFile type="UnstructuredGrid" version="0.1" byte_order="LittleEndian">
   <UnstructuredGrid>
      <Piece NumberOfPoints="25" NumberOfCells="0" > 
         <Points> 
            <DataArray type="Float64" Name="Position" NumberOfComponents="3" format="ascii"> 
               0  0  15  
               0.75  0  15  
               1.5  0  15  
               2.25  0  15  
               3  0  15  
               0  0.75  15  
               0.75  0.75  15  
               1.5  0.75  15  
               2.25  0.75  15  
               3  0.75  15  
               0  1.5  15  
               0.75  1.5  15  
               1.5  1.5  15  
               2.25  1.5  15  
               3  1.5  15  
               0  2.25  15  
               0.75  2.25  15  
               1.5  2.25  15  
               2.25  2.25  15  
               3  2.25  15  
               0  3  15  
               0.75  3  15  
               1.5  3  15  
               2.25  3  15  
               3  3  15  
            </DataArray>
         </Points> 

         <Cells>
            <DataArray type="Int32" Name="connectivity" NumberOfComponents="1" format="ascii">
               
            </DataArray> 
            <DataArray type="Int32" Name="offsets" NumberOfComponents="1" format="ascii">
               
            </DataArray>
            <DataArray type="UInt8"  Name="types" NumberOfComponents="1" format="ascii">
               
            </DataArray>
         </Cells>
         <PointData Scalars="Rank " Vectors="Displacement Velocity Traction ">
            <DataArray type="UInt32" Name="Rank" NumberOfComponents="1" format="ascii">
               0 0 0 0 0 0 0 0 0 0 0 0 0 0 0 0 0 0 0 0 0 0 0 0 0 
            </DataArray>
            <DataArray type="Float64" Name="Displacement" NumberOfComponents="3" format="ascii">
               9.75608e-09 1.14457e-08 -2.29331e-08  8.55389e-09 -1.95935e-09 -2.07808e-08  5.57619e-09 3.20401e-09 -1.87312e-08  2.81492e-09 1.19122e-10 -2.07546e-08  2.01288e-09 -1.02708e-09 -2.28878e-08  -1.65869e-09 1.00684e-08 -2.07808e-08  -1.69477e-09 -2.11709e-09 -1.52364e-08  -7.22904e-10 2.35525e-09 -9.85722e-09  1.03315e-09 1.23087e-10 -1.52312e-08  1.61212e-09 -2.29163e-09 -2.0759e-08  4.29005e-09 5.54969e-09 -1.87315e-08  3.08171e-09 -5.65515e-10 -9.85696e-09  -8.34823e-10 -4.16732e-10 -1.20811e-09  -5.06923e-09 1.54853e-09 -9.86362e-09  -7.09598e-09 -5.87208e-09 -1.8744e-08  1.72941e-10 2.70389e-09 -2.07543e-08  6.24588e-11 1.10905e-09 -1.52313e-08  1.64502e-09 -4.42222e-09 -9.86412e-09  2.50552e-09 1.73752e-09 -1.5241e-08  1.52085e-09 -7.72759e-09 -2.0783e-08  -2.04395e-09 1.58074e-09 -2.28875e-08  -3.10107e-09 1.44465e-09 -2.07595e-08  -8.49967e-09 -5.47615e-09 -1.87445e-08  -1.18423e-08 2.79815e-10 -2.07838e-08  -1.08123e-08 -8.36417e-09 -2.29259e-08  
            </DataArray>
            <DataArray type="Float64" Name="Velocity" NumberOfComponents="3" format="ascii">
               5.80894e-08 7.06325e-08 -1.27187e-07  5.20997e-08 -1.12761e-08 -1.14963e-07  3.65453e-08 1.79985e-08 -1.03508e-07  2.11208e-08 2.02728e-09 -1.1472e-07  1.66296e-08 -8.10274e-09 -1.26839e-07  -9.47776e-09 6.22349e-08 -1.14963e-07  -9.32494e-09 -1.22458e-08 -8.42538e-08  -4.08579e-09 1.22747e-08 -5.48946e-08  5.21661e-09 1.39728e-09 -8.42217e-08  8.20345e-09 -1.61182e-08 -1.14756e-07  2.58397e-08 3.69566e-08 -1.03511e-07  1.75929e-08 -3.39282e-09 -5.48931e-08  -6.16231e-09 -3.2096e-09 -8.06541e-09  -2.99292e-08 8.43014e-09 -5.49511e-08  -4.17011e-08 -3.46779e-08 -1.03614e-07  2.49881e-09 1.98858e-08 -1.14718e-07  1.45653e-09 6.01606e-09 -8.42228e-08  9.17427e-09 -2.54234e-08 -5.49546e-08  1.46793e-08 9.91692e-09 -8.42948e-08  1.05369e-08 -4.46972e-08 -1.1498e-07  -1.51361e-08 1.33515e-08 -1.26836e-07  -2.29486e-08 8.14386e-09 -1.14758e-07  -5.29544e-08 -3.19829e-08 -1.03619e-07  -7.26442e-08 3.01144e-09 -1.14985e-07  -6.93426e-08 -4.92347e-08 -1.27131e-07  
            </DataArray>
            <DataArray type="Float64" Name="Traction" NumberOfComponents="3" format="ascii">
               1.15464e-06 1.23852e-06 -2.21329e-05  -2.53018e-07 1.28817e-06 -2.21329e-05  1.79708e-09 3.74368e-07 -2.21329e-05  5.19731e-08 7.83075e-07 -2.21329e-05  -9.23167e-07 1.05489e-06 -2.21329e-05  8.85571e-07 -3.48088e-07 -2.21329e-05  -1.8958e-07 -2.6439e-07 -2.21329e-05  -3.54098e-08 -2.75419e-07 -2.21329e-05  3.06759e-07 -1.05993e-07 -2.21329e-05  -1.48004e-06 1.39673e-07 -2.21329e-05  8.54722e-07 9.74353e-09 -2.21329e-05  -2.36716e-07 -1.46064e-08 -2.21329e-05  -7.04978e-08 -4.0363e-08 -2.21329e-05  5.89116e-07 3.89615e-08 -2.21329e-05  -1.89519e-06 7.30759e-08 -2.21329e-05  1.05129e-06 1.97301e-07 -2.21329e-05  -1.49247e-07 3.12419e-07 -2.21329e-05  2.82013e-08 4.47915e-07 -2.21329e-05  2.5427e-07 1.50534e-07 -2.21329e-05  -1.34273e-06 -1.2811e-07 -2.21329e-05  8.00773e-07 -7.03186e-07 -2.21329e-05  -6.22265e-09 -1.33869e-06 -2.21329e-05  6.93517e-08 -1.16007e-06 -2.21329e-05  -1.65754e-08 -6.77492e-07 -2.21329e-05  -7.21243e-07 -7.10847e-07 -2.21329e-05  
            </DataArray>
         </PointData> 
      </Piece>
   </UnstructuredGrid> 
</VTKFile>
