<?xml version="1.0"?>
<VTKFile type="UnstructuredGrid" version="0.1" byte_order="LittleEndian">
   <UnstructuredGrid>
      <Piece NumberOfPoints="25" NumberOfCells="0" > 
         <Points> 
            <DataArray type="Float64" Name="Position" NumberOfComponents="3" format="ascii"> 
               0  0  20  
               0.75  0  20  
               1.5  0  20  
               2.25  0  20  
               3  0  20  
               0  0.75  20  
               0.75  0.75  20  
               1.5  0.75  20  
               2.25  0.75  20  
               3  0.75  20  
               0  1.5  20  
               0.75  1.5  20  
               1.5  1.5  20  
               2.25  1.5  20  
               3  1.5  20  
               0  2.25  20  
               0.75  2.25  20  
               1.5  2.25  20  
               2.25  2.25  20  
               3  2.25  20  
               0  3  20  
               0.75  3  20  
               1.5  3  20  
               2.25  3  20  
               3  3  20  
            </DataArray>
         </Points> 

         <Cells>
            <DataArray type="Int32" Name="connectivity" NumberOfComponents="1" format="ascii">
               
            </DataArray> 
            <DataArray type="Int32" Name="offsets" NumberOfComponents="1" format="ascii">
               
            </DataArray>
            <DataArray type="UInt8"  Name="types" NumberOfComponents="1" format="ascii">
               
            </DataArray>
         </Cells>
         <PointData Scalars="Rank " Vectors="Displacement Velocity Traction ">
            <DataArray type="UInt32" Name="Rank" NumberOfComponents="1" format="ascii">
               0 0 0 0 0 0 0 0 0 0 0 0 0 0 0 0 0 0 0 0 0 0 0 0 0 
            </DataArray>
            <DataArray type="Float64" Name="Displacement" NumberOfComponents="3" format="ascii">
               0.00100995 0.00100833 -0.00463312  6.57941e-05 0.00169345 -0.00461672  -0.000512534 0.00200974 -0.00445689  -0.000496584 0.00146159 -0.00464705  -0.00109687 0.00181032 -0.00466419  0.00167787 6.23249e-05 -0.00460599  0.000521157 0.00053193 -0.00424026  -0.00017362 0.000836987 -0.00394222  -0.000544898 0.000563324 -0.00440444  -0.00141867 0.000935303 -0.0045559  0.00199049 -0.000508887 -0.00444245  0.000823143 -0.000171533 -0.00394095  -1.05243e-05 -6.10617e-06 -0.00337357  -0.000796163 0.000127569 -0.00396512  -0.00195086 0.000508314 -0.00444967  0.00143934 -0.000475237 -0.00463266  0.000549136 -0.000533793 -0.00440402  0.000121725 -0.000783792 -0.00396448  -0.000509685 -0.00049584 -0.004283  -0.00165699 -0.000113246 -0.00461594  0.00178495 -0.00106699 -0.00463084  0.000914859 -0.0013972 -0.00454241  0.000501994 -0.00193122 -0.00443555  -0.000112621 -0.00163605 -0.00460289  -0.00104752 -0.0010453 -0.00461308  
            </DataArray>
            <DataArray type="Float64" Name="Velocity" NumberOfComponents="3" format="ascii">
               0.0011298 0.00111156 -0.00498213  8.41428e-05 0.00185917 -0.00488643  -0.000461018 0.0022464 -0.0046878  -0.000451141 0.00162425 -0.00491169  -0.00117328 0.00185909 -0.00498121  0.00186965 6.73441e-05 -0.00488971  0.000556112 0.000546221 -0.00439648  -0.0001366 0.000864793 -0.0040002  -0.00051921 0.000563078 -0.00454945  -0.00155096 0.000891027 -0.00482251  0.00225143 -0.00047539 -0.0046844  0.000871294 -0.000149154 -0.00399727  1.85825e-05 8.21462e-06 -0.00328827  -0.000794239 0.000124123 -0.00402674  -0.00216001 0.000491045 -0.0046761  0.00162128 -0.000456924 -0.00490271  0.000566072 -0.000527291 -0.00454447  0.000132436 -0.000800062 -0.00402431  -0.000497758 -0.000502212 -0.00444274  -0.00179787 -0.000103582 -0.00488025  0.00185348 -0.0011703 -0.0049662  0.000890902 -0.00155313 -0.00481539  0.00049791 -0.00216248 -0.00467152  -9.07633e-05 -0.00179793 -0.00487991  -0.00111741 -0.00113139 -0.00494518  
            </DataArray>
            <DataArray type="Float64" Name="Traction" NumberOfComponents="3" format="ascii">
               0 0 0  0 0 0  0 0 0  0 0 0  0 0 0  0 0 0  0 0 0  0 0 0  0 0 0  0 0 0  0 0 0  0 0 0  0 0 0  0 0 0  0 0 0  0 0 0  0 0 0  0 0 0  0 0 0  0 0 0  0 0 0  0 0 0  0 0 0  0 0 0  0 0 0  
            </DataArray>
         </PointData> 
      </Piece>
   </UnstructuredGrid> 
</VTKFile>
