<?xml version="1.0"?>
<VTKFile type="UnstructuredGrid" version="0.1" byte_order="LittleEndian">
   <UnstructuredGrid>
      <Piece NumberOfPoints="25" NumberOfCells="0" > 
         <Points> 
            <DataArray type="Float64" Name="Position" NumberOfComponents="3" format="ascii"> 
               0  0  20  
               0.75  0  20  
               1.5  0  20  
               2.25  0  20  
               3  0  20  
               0  0.75  20  
               0.75  0.75  20  
               1.5  0.75  20  
               2.25  0.75  20  
               3  0.75  20  
               0  1.5  20  
               0.75  1.5  20  
               1.5  1.5  20  
               2.25  1.5  20  
               3  1.5  20  
               0  2.25  20  
               0.75  2.25  20  
               1.5  2.25  20  
               2.25  2.25  20  
               3  2.25  20  
               0  3  20  
               0.75  3  20  
               1.5  3  20  
               2.25  3  20  
               3  3  20  
            </DataArray>
         </Points> 

         <Cells>
            <DataArray type="Int32" Name="connectivity" NumberOfComponents="1" format="ascii">
               
            </DataArray> 
            <DataArray type="Int32" Name="offsets" NumberOfComponents="1" format="ascii">
               
            </DataArray>
            <DataArray type="UInt8"  Name="types" NumberOfComponents="1" format="ascii">
               
            </DataArray>
         </Cells>
         <PointData Scalars="Rank " Vectors="Displacement Velocity Traction ">
            <DataArray type="UInt32" Name="Rank" NumberOfComponents="1" format="ascii">
               0 0 0 0 0 0 0 0 0 0 0 0 0 0 0 0 0 0 0 0 0 0 0 0 0 
            </DataArray>
            <DataArray type="Float64" Name="Displacement" NumberOfComponents="3" format="ascii">
               5.7948e-05 5.87289e-05 -0.000233094  -1.31624e-06 0.000103447 -0.000221382  -3.3805e-05 0.000123222 -0.000205357  -2.70853e-05 8.60119e-05 -0.000217646  -6.674e-05 0.000105632 -0.000228839  0.00010427 -3.96557e-07 -0.00022259  3.19302e-05 3.10855e-05 -0.000186991  -7.83538e-06 4.95954e-05 -0.000162195  -2.62929e-05 2.90846e-05 -0.000193038  -8.2562e-05 5.1385e-05 -0.000212197  0.000125545 -3.32747e-05 -0.000207345  5.15313e-05 -7.39859e-06 -0.000162507  3.2127e-06 2.851e-06 -0.000121726  -4.2387e-05 8.49233e-06 -0.000163247  -0.000115838 3.46736e-05 -0.000203403  8.91183e-05 -2.92985e-05 -0.000219611  3.13881e-05 -2.67702e-05 -0.000193018  9.57706e-06 -4.30464e-05 -0.000163178  -2.55394e-05 -2.68591e-05 -0.000188256  -9.68528e-05 9.39429e-07 -0.000218501  0.00010822 -7.03591e-05 -0.000232882  5.38642e-05 -8.42938e-05 -0.000213465  3.56753e-05 -0.000117216 -0.000204638  8.34184e-07 -9.87211e-05 -0.000219943  -5.71245e-05 -5.73104e-05 -0.000228337  
            </DataArray>
            <DataArray type="Float64" Name="Velocity" NumberOfComponents="3" format="ascii">
               6.88944e-05 7.27756e-05 -0.000298576  -7.58943e-07 0.00012292 -0.000293526  -4.44011e-05 0.000143784 -0.000278326  -3.84149e-05 0.000102312 -0.000292407  -7.92529e-05 0.000133578 -0.000296668  0.000120241 3.16323e-06 -0.000293015  3.70637e-05 3.96722e-05 -0.000262018  -1.51303e-05 6.22897e-05 -0.000238758  -4.01882e-05 4.03552e-05 -0.000272585  -0.000101469 7.00065e-05 -0.000284519  0.000142033 -4.06452e-05 -0.00027875  6.03282e-05 -1.18535e-05 -0.000239219  -1.79019e-06 9.24973e-07 -0.000197197  -5.75485e-05 9.9957e-06 -0.000239787  -0.000137371 3.97189e-05 -0.000275234  0.000102144 -3.65054e-05 -0.000293666  3.92206e-05 -3.7919e-05 -0.000273199  7.82591e-06 -5.59694e-05 -0.000240061  -3.68408e-05 -3.56655e-05 -0.000264109  -0.000116671 -5.45574e-06 -0.000290067  0.000134042 -7.86357e-05 -0.000298854  7.00043e-05 -9.99819e-05 -0.000285236  3.83563e-05 -0.000136486 -0.000275949  -8.09034e-06 -0.000116673 -0.000290511  -7.47395e-05 -7.20934e-05 -0.00029373  
            </DataArray>
            <DataArray type="Float64" Name="Traction" NumberOfComponents="3" format="ascii">
               -0.000490062 -0.000462947 -0.00340617  -0.000174395 -0.000767667 -0.00340617  0.00016598 -0.000916981 -0.00340617  0.00015444 -0.00061521 -0.00340617  0.000384563 -0.000648219 -0.00340617  -0.000790073 -0.000150554 -0.00340617  -0.000330979 -0.000313145 -0.00340617  0.000236049 -0.000497609 -0.00340617  0.000288244 -0.000322712 -0.00340617  0.000543646 -0.000296266 -0.00340617  -0.000946422 0.000179348 -0.00340617  -0.000517993 0.000239131 -0.00340617  0.000191534 0.000196225 -0.00340617  0.000449683 5.33062e-05 -0.00340617  0.000848815 -2.90404e-05 -0.00340617  -0.000638112 0.000191714 -0.00340617  -0.000333371 0.000308516 -0.00340617  5.28977e-05 0.000465618 -0.00340617  0.000284246 0.00029951 -0.00340617  0.000710497 0.000146251 -0.00340617  -0.000672899 0.000439595 -0.00340617  -0.000307977 0.000582051 -0.00340617  -2.46796e-05 0.000879517 -0.00340617  0.00014356 0.000739992 -0.00340617  0.000432714 0.000446942 -0.00340617  
            </DataArray>
         </PointData> 
      </Piece>
   </UnstructuredGrid> 
</VTKFile>
