<?xml version="1.0"?>
<VTKFile type="UnstructuredGrid" version="0.1" byte_order="LittleEndian">
   <UnstructuredGrid>
      <Piece NumberOfPoints="25" NumberOfCells="0" > 
         <Points> 
            <DataArray type="Float64" Name="Position" NumberOfComponents="3" format="ascii"> 
               0  0  15  
               0.75  0  15  
               1.5  0  15  
               2.25  0  15  
               3  0  15  
               0  0.75  15  
               0.75  0.75  15  
               1.5  0.75  15  
               2.25  0.75  15  
               3  0.75  15  
               0  1.5  15  
               0.75  1.5  15  
               1.5  1.5  15  
               2.25  1.5  15  
               3  1.5  15  
               0  2.25  15  
               0.75  2.25  15  
               1.5  2.25  15  
               2.25  2.25  15  
               3  2.25  15  
               0  3  15  
               0.75  3  15  
               1.5  3  15  
               2.25  3  15  
               3  3  15  
            </DataArray>
         </Points> 

         <Cells>
            <DataArray type="Int32" Name="connectivity" NumberOfComponents="1" format="ascii">
               
            </DataArray> 
            <DataArray type="Int32" Name="offsets" NumberOfComponents="1" format="ascii">
               
            </DataArray>
            <DataArray type="UInt8"  Name="types" NumberOfComponents="1" format="ascii">
               
            </DataArray>
         </Cells>
         <PointData Scalars="Rank " Vectors="Displacement Velocity Traction ">
            <DataArray type="UInt32" Name="Rank" NumberOfComponents="1" format="ascii">
               0 0 0 0 0 0 0 0 0 0 0 0 0 0 0 0 0 0 0 0 0 0 0 0 0 
            </DataArray>
            <DataArray type="Float64" Name="Displacement" NumberOfComponents="3" format="ascii">
               6.00913e-07 7.17377e-07 -8.39436e-07  5.75187e-07 -6.42002e-08 -7.65701e-07  4.91137e-07 2.85577e-09 -6.92423e-07  3.98502e-07 2.0955e-08 -7.5148e-07  3.67868e-07 -1.0894e-07 -8.40234e-07  -5.26612e-08 6.43914e-07 -7.65823e-07  -3.57228e-08 -7.07968e-08 -5.94997e-07  -2.74661e-08 -8.48666e-09 -4.62896e-07  -7.46904e-09 2.68803e-08 -6.01387e-07  2.35136e-09 -1.61409e-07 -7.48822e-07  1.65476e-07 4.6284e-07 -6.9242e-07  1.21387e-07 -2.30893e-08 -4.62881e-07  -6.08671e-08 -6.49865e-08 -2.65973e-07  -2.35358e-07 7.51746e-08 -4.65226e-07  -3.20795e-07 -2.49915e-07 -6.94266e-07  7.09823e-08 3.32559e-07 -7.51233e-07  6.45503e-08 3.33667e-08 -6.01483e-07  8.15635e-08 -1.77006e-07 -4.6521e-07  1.02275e-07 8.29098e-08 -5.97138e-07  7.59285e-08 -2.53173e-07 -7.65517e-07  -3.18948e-07 2.75817e-07 -8.39919e-07  -3.80961e-07 5.97472e-08 -7.49041e-07  -5.97315e-07 -1.93566e-07 -6.94625e-07  -7.29251e-07 4.18229e-08 -7.65849e-07  -6.98359e-07 -2.59611e-07 -8.39892e-07  
            </DataArray>
            <DataArray type="Float64" Name="Velocity" NumberOfComponents="3" format="ascii">
               1.45969e-06 1.58217e-06 -1.54755e-06  1.41513e-06 -9.79375e-08 -1.44245e-06  1.225e-06 -1.44397e-07 -1.31441e-06  1.02046e-06 3.18237e-08 -1.40243e-06  9.57978e-07 -1.88164e-07 -1.55756e-06  -7.72094e-08 1.42598e-06 -1.44292e-06  -2.77142e-08 -1.04486e-07 -1.17175e-06  -4.2628e-08 -1.19586e-07 -9.92026e-07  -6.21101e-08 6.33287e-08 -1.19741e-06  -5.94646e-08 -2.92176e-07 -1.38933e-06  3.14892e-07 1.06862e-06 -1.31422e-06  2.53098e-07 -3.28176e-08 -9.91961e-07  -1.17779e-07 -1.85541e-07 -7.25482e-07  -4.91622e-07 1.67689e-07 -9.98548e-07  -6.71294e-07 -4.42346e-07 -1.31711e-06  1.98779e-07 7.94729e-07 -1.40138e-06  1.86634e-07 6.15031e-08 -1.19772e-06  1.76497e-07 -3.60297e-07 -9.98277e-07  1.9172e-07 1.94592e-07 -1.17859e-06  1.36994e-07 -3.89393e-07 -1.44072e-06  -8.14747e-07 6.7328e-07 -1.55642e-06  -9.44202e-07 1.24241e-07 -1.39021e-06  -1.37266e-06 -3.64937e-07 -1.31833e-06  -1.60317e-06 1.20604e-07 -1.44198e-06  -1.52011e-06 -3.67824e-07 -1.55029e-06  
            </DataArray>
            <DataArray type="Float64" Name="Traction" NumberOfComponents="3" format="ascii">
               2.97435e-05 2.94777e-05 -0.000132889  -9.4697e-06 2.72368e-05 -0.000132889  -4.18841e-06 -2.55348e-07 -0.000132889  1.69818e-06 1.37967e-05 -0.000132889  -2.8388e-05 3.26265e-05 -0.000132889  2.0578e-05 -1.03024e-05 -0.000132889  -2.30127e-06 -4.38836e-06 -0.000132889  -2.22053e-07 -5.20284e-06 -0.000132889  3.96081e-06 -1.77401e-06 -0.000132889  -3.56384e-05 4.4896e-06 -0.000132889  2.28674e-05 -1.91216e-06 -0.000132889  -2.92383e-06 -1.36361e-06 -0.000132889  -7.73577e-07 -4.05349e-07 -0.000132889  1.0298e-05 1.18676e-06 -0.000132889  -4.04505e-05 3.35264e-06 -0.000132889  2.58338e-05 3.99842e-06 -0.000132889  -1.39967e-06 5.2167e-06 -0.000132889  2.18763e-06 7.59657e-06 -0.000132889  4.22304e-06 3.72748e-06 -0.000132889  -2.81835e-05 -2.02637e-06 -0.000132889  2.20434e-05 -1.71347e-05 -0.000132889  1.43177e-06 -2.73304e-05 -0.000132889  3.05291e-06 -2.00745e-05 -0.000132889  2.93167e-06 -5.65552e-06 -0.000132889  -6.34257e-06 -9.4129e-06 -0.000132889  
            </DataArray>
         </PointData> 
      </Piece>
   </UnstructuredGrid> 
</VTKFile>
