<?xml version="1.0"?>
<VTKFile type="UnstructuredGrid" version="0.1" byte_order="LittleEndian">
   <UnstructuredGrid>
      <Piece NumberOfPoints="25" NumberOfCells="0" > 
         <Points> 
            <DataArray type="Float64" Name="Position" NumberOfComponents="3" format="ascii"> 
               0  0  20  
               0.75  0  20  
               1.5  0  20  
               2.25  0  20  
               3  0  20  
               0  0.75  20  
               0.75  0.75  20  
               1.5  0.75  20  
               2.25  0.75  20  
               3  0.75  20  
               0  1.5  20  
               0.75  1.5  20  
               1.5  1.5  20  
               2.25  1.5  20  
               3  1.5  20  
               0  2.25  20  
               0.75  2.25  20  
               1.5  2.25  20  
               2.25  2.25  20  
               3  2.25  20  
               0  3  20  
               0.75  3  20  
               1.5  3  20  
               2.25  3  20  
               3  3  20  
            </DataArray>
         </Points> 

         <Cells>
            <DataArray type="Int32" Name="connectivity" NumberOfComponents="1" format="ascii">
               
            </DataArray> 
            <DataArray type="Int32" Name="offsets" NumberOfComponents="1" format="ascii">
               
            </DataArray>
            <DataArray type="UInt8"  Name="types" NumberOfComponents="1" format="ascii">
               
            </DataArray>
         </Cells>
         <PointData Scalars="Rank " Vectors="Displacement Velocity Traction ">
            <DataArray type="UInt32" Name="Rank" NumberOfComponents="1" format="ascii">
               0 0 0 0 0 0 0 0 0 0 0 0 0 0 0 0 0 0 0 0 0 0 0 0 0 
            </DataArray>
            <DataArray type="Float64" Name="Displacement" NumberOfComponents="3" format="ascii">
               1.36211e-05 1.26044e-05 -5.41294e-05  -6.17641e-07 2.53429e-05 -4.8557e-05  -6.62678e-06 3.23219e-05 -4.32033e-05  -4.20572e-06 2.16444e-05 -4.65669e-05  -1.63572e-05 2.31502e-05 -5.27218e-05  2.67652e-05 -1.6896e-06 -4.93504e-05  7.7047e-06 6.23073e-06 -3.67277e-05  -8.74019e-08 1.099e-05 -2.79516e-05  -3.37144e-06 4.9094e-06 -3.68656e-05  -1.9915e-05 9.3642e-06 -4.60528e-05  3.42446e-05 -7.8198e-06 -4.40544e-05  1.28259e-05 -1.10636e-06 -2.79513e-05  2.61917e-06 1.42562e-06 -1.51589e-05  -8.37056e-06 2.2446e-06 -2.82979e-05  -3.03515e-05 9.11577e-06 -4.34548e-05  2.33039e-05 -6.09971e-06 -4.70791e-05  6.55729e-06 -4.36626e-06 -3.66614e-05  3.57643e-06 -9.07023e-06 -2.81499e-05  -4.15865e-06 -5.0137e-06 -3.68013e-05  -2.42127e-05 2.63074e-06 -4.8426e-05  2.40593e-05 -1.85267e-05 -5.38789e-05  1.04023e-05 -2.1224e-05 -4.64036e-05  9.95777e-06 -3.10607e-05 -4.36353e-05  3.33577e-06 -2.47766e-05 -4.87505e-05  -1.16756e-05 -1.24632e-05 -5.35212e-05  
            </DataArray>
            <DataArray type="Float64" Name="Velocity" NumberOfComponents="3" format="ascii">
               2.73908e-05 2.75785e-05 -9.94275e-05  -7.18838e-07 4.75322e-05 -9.30508e-05  -1.55747e-05 5.51914e-05 -8.56626e-05  -1.26089e-05 3.88579e-05 -9.09845e-05  -3.12274e-05 4.79748e-05 -9.67758e-05  4.83055e-05 -3.45615e-07 -9.39192e-05  1.52705e-05 1.45339e-05 -7.67625e-05  -2.83305e-06 2.24273e-05 -6.5733e-05  -1.13756e-05 1.31894e-05 -7.94431e-05  -3.66961e-05 2.31294e-05 -8.82761e-05  5.68982e-05 -1.54872e-05 -8.7033e-05  2.38738e-05 -2.83224e-06 -6.59115e-05  2.15109e-06 1.57423e-06 -4.75356e-05  -1.83424e-05 3.7191e-06 -6.62161e-05  -5.09698e-05 1.6153e-05 -8.44125e-05  4.10631e-05 -1.42302e-05 -9.22683e-05  1.49159e-05 -1.2018e-05 -7.93295e-05  4.81294e-06 -1.92374e-05 -6.61467e-05  -1.10403e-05 -1.24283e-05 -7.73455e-05  -4.33239e-05 9.52331e-07 -9.12193e-05  5.00354e-05 -3.36693e-05 -9.94527e-05  2.51618e-05 -3.8194e-05 -8.91047e-05  1.72533e-05 -5.24106e-05 -8.54046e-05  1.47098e-06 -4.50892e-05 -9.24525e-05  -2.5594e-05 -2.63788e-05 -9.63513e-05  
            </DataArray>
            <DataArray type="Float64" Name="Traction" NumberOfComponents="3" format="ascii">
               0 0 0  0 0 0  0 0 0  0 0 0  0 0 0  0 0 0  0 0 0  0 0 0  0 0 0  0 0 0  0 0 0  0 0 0  0 0 0  0 0 0  0 0 0  0 0 0  0 0 0  0 0 0  0 0 0  0 0 0  0 0 0  0 0 0  0 0 0  0 0 0  0 0 0  
            </DataArray>
         </PointData> 
      </Piece>
   </UnstructuredGrid> 
</VTKFile>
