<?xml version="1.0"?>
<VTKFile type="UnstructuredGrid" version="0.1" byte_order="LittleEndian">
   <UnstructuredGrid>
      <Piece NumberOfPoints="25" NumberOfCells="0" > 
         <Points> 
            <DataArray type="Float64" Name="Position" NumberOfComponents="3" format="ascii"> 
               0  0  15  
               0.75  0  15  
               1.5  0  15  
               2.25  0  15  
               3  0  15  
               0  0.75  15  
               0.75  0.75  15  
               1.5  0.75  15  
               2.25  0.75  15  
               3  0.75  15  
               0  1.5  15  
               0.75  1.5  15  
               1.5  1.5  15  
               2.25  1.5  15  
               3  1.5  15  
               0  2.25  15  
               0.75  2.25  15  
               1.5  2.25  15  
               2.25  2.25  15  
               3  2.25  15  
               0  3  15  
               0.75  3  15  
               1.5  3  15  
               2.25  3  15  
               3  3  15  
            </DataArray>
         </Points> 

         <Cells>
            <DataArray type="Int32" Name="connectivity" NumberOfComponents="1" format="ascii">
               
            </DataArray> 
            <DataArray type="Int32" Name="offsets" NumberOfComponents="1" format="ascii">
               
            </DataArray>
            <DataArray type="UInt8"  Name="types" NumberOfComponents="1" format="ascii">
               
            </DataArray>
         </Cells>
         <PointData Scalars="Rank " Vectors="Displacement Velocity Traction ">
            <DataArray type="UInt32" Name="Rank" NumberOfComponents="1" format="ascii">
               0 0 0 0 0 0 0 0 0 0 0 0 0 0 0 0 0 0 0 0 0 0 0 0 0 
            </DataArray>
            <DataArray type="Float64" Name="Displacement" NumberOfComponents="3" format="ascii">
               0.000282467 0.000183333 -2.64498e-05  0.000275054 4.40671e-05 -2.28527e-05  0.000242233 2.67696e-05 -1.9737e-05  0.000204253 8.49922e-06 -2.15878e-05  0.000191881 -7.19741e-05 -2.56499e-05  9.60944e-05 0.000178261 -2.3374e-05  9.87995e-05 4.6367e-05 -1.60254e-05  9.38844e-05 2.93568e-05 -1.0593e-05  9.23078e-05 3.59954e-06 -1.55187e-05  9.8954e-05 -8.39057e-05 -2.17672e-05  5.88841e-05 0.000151452 -2.01673e-05  6.4484e-05 3.33188e-05 -1.05495e-05  4.62565e-05 3.43165e-07 -3.22324e-06  3.34536e-05 -2.29117e-05 -1.08051e-05  4.24553e-05 -0.000115878 -2.02908e-05  2.2788e-05 0.000118103 -2.17305e-05  2.61315e-05 1.70335e-05 -1.53678e-05  2.00739e-05 -2.58326e-05 -1.06841e-05  1.6599e-05 -4.52441e-05 -1.59553e-05  1.92091e-05 -0.000136111 -2.32187e-05  -4.18094e-05 0.000106859 -2.60513e-05  -4.82835e-05 1.23235e-05 -2.18996e-05  -6.50675e-05 -3.13471e-05 -2.02052e-05  -6.98661e-05 -5.32598e-05 -2.32011e-05  -6.56581e-05 -0.000136578 -2.66701e-05  
            </DataArray>
            <DataArray type="Float64" Name="Velocity" NumberOfComponents="3" format="ascii">
               0.00018481 0.000165036 -6.07887e-05  0.000176492 3.5962e-05 -5.5267e-05  0.000144351 3.65644e-06 -4.99501e-05  0.000106664 -1.28415e-05 -5.33676e-05  9.25814e-05 -9.44854e-05 -5.8955e-05  4.22576e-05 0.000157062 -5.60657e-05  4.32598e-05 3.61562e-05 -4.31532e-05  2.78991e-05 1.23947e-05 -3.50455e-05  1.43395e-05 -1.30221e-05 -4.42302e-05  1.73791e-05 -0.000106749 -5.1984e-05  3.01817e-07 0.000126452 -5.10285e-05  1.05646e-05 1.65586e-05 -3.51326e-05  -3.6818e-06 -7.87828e-06 -2.22388e-05  -1.46372e-05 -3.75744e-05 -3.53801e-05  -2.2078e-06 -0.00014023 -4.94473e-05  -1.9548e-05 9.04791e-05 -5.42119e-05  -1.68811e-05 -2.87903e-06 -4.40502e-05  -3.2665e-05 -2.64131e-05 -3.52607e-05  -4.75081e-05 -6.2296e-05 -4.34253e-05  -4.53752e-05 -0.000168866 -5.43178e-05  -8.37768e-05 7.73305e-05 -6.07384e-05  -9.38338e-05 -4.09679e-06 -5.25305e-05  -0.000119788 -2.12504e-05 -5.00671e-05  -0.000139478 -6.6513e-05 -5.51693e-05  -0.000143195 -0.000176596 -5.89624e-05  
            </DataArray>
            <DataArray type="Float64" Name="Traction" NumberOfComponents="3" format="ascii">
               0.00380485 0.00364594 -0.00579341  -0.000385667 0.00405449 -0.00579341  -0.000526574 0.0042891 -0.00579341  -0.000656314 0.00461017 -0.00579341  -0.00502722 0.00449356 -0.00579341  0.00475338 -0.00037532 -0.00579341  0.000532013 0.000927666 -0.00579341  2.91819e-06 0.00156366 -0.00579341  -0.000281953 0.000914203 -0.00579341  -0.00398728 0.000703504 -0.00579341  0.00469752 -0.000697693 -0.00579341  0.000641954 7.60754e-05 -0.00579341  -0.000132991 -2.54396e-05 -0.00579341  -0.000827892 -0.000261511 -0.00579341  -0.00457177 0.000211842 -0.00579341  0.00466652 -0.000787566 -0.00579341  0.000193728 -0.000690813 -0.00579341  -0.000351497 -0.00158264 -0.00579341  -0.0009147 -0.00160329 -0.00579341  -0.00252647 -0.00139224 -0.00579341  0.00472003 -0.00557825 -0.00579341  0.000209674 -0.00416615 -0.00579341  0.000311927 -0.00452508 -0.00579341  -0.000852565 -0.00320577 -0.00579341  -0.000258233 -0.000713583 -0.00579341  
            </DataArray>
         </PointData> 
      </Piece>
   </UnstructuredGrid> 
</VTKFile>
