<?xml version="1.0"?>
<VTKFile type="UnstructuredGrid" version="0.1" byte_order="LittleEndian">
   <UnstructuredGrid>
      <Piece NumberOfPoints="25" NumberOfCells="0" > 
         <Points> 
            <DataArray type="Float64" Name="Position" NumberOfComponents="3" format="ascii"> 
               0  0  20  
               0.75  0  20  
               1.5  0  20  
               2.25  0  20  
               3  0  20  
               0  0.75  20  
               0.75  0.75  20  
               1.5  0.75  20  
               2.25  0.75  20  
               3  0.75  20  
               0  1.5  20  
               0.75  1.5  20  
               1.5  1.5  20  
               2.25  1.5  20  
               3  1.5  20  
               0  2.25  20  
               0.75  2.25  20  
               1.5  2.25  20  
               2.25  2.25  20  
               3  2.25  20  
               0  3  20  
               0.75  3  20  
               1.5  3  20  
               2.25  3  20  
               3  3  20  
            </DataArray>
         </Points> 

         <Cells>
            <DataArray type="Int32" Name="connectivity" NumberOfComponents="1" format="ascii">
               
            </DataArray> 
            <DataArray type="Int32" Name="offsets" NumberOfComponents="1" format="ascii">
               
            </DataArray>
            <DataArray type="UInt8"  Name="types" NumberOfComponents="1" format="ascii">
               
            </DataArray>
         </Cells>
         <PointData Scalars="Rank " Vectors="Displacement Velocity Traction ">
            <DataArray type="UInt32" Name="Rank" NumberOfComponents="1" format="ascii">
               0 0 0 0 0 0 0 0 0 0 0 0 0 0 0 0 0 0 0 0 0 0 0 0 0 
            </DataArray>
            <DataArray type="Float64" Name="Displacement" NumberOfComponents="3" format="ascii">
               0.00137525 0.00136847 -0.00621801  8.9964e-05 0.00229803 -0.0061609  -0.000656562 0.00274507 -0.00593191  -0.00063648 0.00199105 -0.00619712  -0.00147831 0.00240352 -0.00624656  0.00228637 8.18698e-05 -0.00615173  0.000697699 0.000705036 -0.0056138  -0.000215033 0.001113 -0.00517734  -0.000707228 0.000739517 -0.0058232  -0.00192513 0.00121169 -0.00607878  0.00272831 -0.00065726 -0.00591723  0.00110177 -0.000216666 -0.00517525  -2.90862e-06 -1.70969e-06 -0.00436618  -0.00104793 0.000166228 -0.0052083  -0.00265764 0.000662071 -0.00592048  0.00196903 -0.000617935 -0.00618078  0.000726891 -0.000699044 -0.00582129  0.000163034 -0.0010379 -0.00520694  -0.000666476 -0.00065461 -0.00567048  -0.00224102 -0.000143326 -0.00615722  0.0023778 -0.00144904 -0.00621048  0.00119226 -0.00190537 -0.00606385  0.000658007 -0.00263975 -0.00590576  -0.000139123 -0.00222119 -0.00614476  -0.00140804 -0.00140987 -0.00618525  
            </DataArray>
            <DataArray type="Float64" Name="Velocity" NumberOfComponents="3" format="ascii">
               0.00171729 0.00169619 -0.00734487  0.000101048 0.002857 -0.00711511  -0.000657189 0.00349529 -0.00677012  -0.000634784 0.00250818 -0.00713412  -0.00180399 0.00275745 -0.00732648  0.00287658 8.25731e-05 -0.00712378  0.000815686 0.000799294 -0.00626348  -0.000184357 0.00128281 -0.00557013  -0.00074206 0.000804669 -0.00645897  -0.00240435 0.00125164 -0.00701367  0.00350933 -0.000676013 -0.00677178  0.00129631 -0.000200221 -0.00556683  4.1305e-05 2.70746e-05 -0.00437821  -0.00116469 0.000175423 -0.00560577  -0.00336059 0.000702046 -0.00674937  0.00251292 -0.000650463 -0.00712831  0.000813618 -0.000756337 -0.00645255  0.000187339 -0.00117681 -0.00560277  -0.000721538 -0.000732227 -0.00632474  -0.00275947 -0.000128244 -0.00709874  0.00276048 -0.00181174 -0.00732077  0.00125959 -0.00241537 -0.00700984  0.000712384 -0.00337158 -0.00674941  -0.000113788 -0.00276792 -0.00710362  -0.00169354 -0.00171049 -0.0072835  
            </DataArray>
            <DataArray type="Float64" Name="Traction" NumberOfComponents="3" format="ascii">
               0 0 0  0 0 0  0 0 0  0 0 0  0 0 0  0 0 0  0 0 0  0 0 0  0 0 0  0 0 0  0 0 0  0 0 0  0 0 0  0 0 0  0 0 0  0 0 0  0 0 0  0 0 0  0 0 0  0 0 0  0 0 0  0 0 0  0 0 0  0 0 0  0 0 0  
            </DataArray>
         </PointData> 
      </Piece>
   </UnstructuredGrid> 
</VTKFile>
