<?xml version="1.0"?>
<VTKFile type="UnstructuredGrid" version="0.1" byte_order="LittleEndian">
   <UnstructuredGrid>
      <Piece NumberOfPoints="25" NumberOfCells="0" > 
         <Points> 
            <DataArray type="Float64" Name="Position" NumberOfComponents="3" format="ascii"> 
               0  0  15  
               0.75  0  15  
               1.5  0  15  
               2.25  0  15  
               3  0  15  
               0  0.75  15  
               0.75  0.75  15  
               1.5  0.75  15  
               2.25  0.75  15  
               3  0.75  15  
               0  1.5  15  
               0.75  1.5  15  
               1.5  1.5  15  
               2.25  1.5  15  
               3  1.5  15  
               0  2.25  15  
               0.75  2.25  15  
               1.5  2.25  15  
               2.25  2.25  15  
               3  2.25  15  
               0  3  15  
               0.75  3  15  
               1.5  3  15  
               2.25  3  15  
               3  3  15  
            </DataArray>
         </Points> 

         <Cells>
            <DataArray type="Int32" Name="connectivity" NumberOfComponents="1" format="ascii">
               
            </DataArray> 
            <DataArray type="Int32" Name="offsets" NumberOfComponents="1" format="ascii">
               
            </DataArray>
            <DataArray type="UInt8"  Name="types" NumberOfComponents="1" format="ascii">
               
            </DataArray>
         </Cells>
         <PointData Scalars="Rank " Vectors="Displacement Velocity Traction ">
            <DataArray type="UInt32" Name="Rank" NumberOfComponents="1" format="ascii">
               0 0 0 0 0 0 0 0 0 0 0 0 0 0 0 0 0 0 0 0 0 0 0 0 0 
            </DataArray>
            <DataArray type="Float64" Name="Displacement" NumberOfComponents="3" format="ascii">
               0.00015085 7.73071e-05 7.1116e-07  0.000148482 1.7651e-05 7.50284e-07  0.000135047 1.70648e-05 8.45748e-07  0.000119521 1.22876e-05 6.70393e-07  0.000115291 -1.78024e-05 6.86663e-07  5.6173e-05 7.65064e-05 7.32141e-07  5.79356e-05 1.94942e-05 6.10026e-07  5.98417e-05 1.58858e-05 1.29684e-06  6.33942e-05 8.54709e-06 1.06675e-06  6.73402e-05 -2.26837e-05 2.02937e-07  4.51088e-05 6.78141e-05 9.66249e-07  4.50341e-05 1.71709e-05 1.34514e-06  3.52409e-05 1.13443e-06 1.71645e-06  2.82488e-05 -2.4706e-06 1.2557e-06  2.98435e-05 -3.50481e-05 3.71209e-07  2.6337e-05 5.58255e-05 8.63677e-07  2.76072e-05 1.21582e-05 1.08506e-06  2.84409e-05 -1.21045e-05 1.27273e-06  3.11892e-05 -9.89038e-06 7.19816e-07  3.20816e-05 -3.89443e-05 2.21976e-07  -2.93425e-06 5.20698e-05 9.95847e-07  -4.28341e-06 9.1208e-06 2.83895e-07  -7.93728e-06 -1.83964e-05 6.27816e-07  -3.6492e-06 -1.45299e-05 5.48796e-07  1.67436e-06 -3.55809e-05 -4.10468e-08  
            </DataArray>
            <DataArray type="Float64" Name="Velocity" NumberOfComponents="3" format="ascii">
               0.000119064 8.37923e-05 -9.75789e-06  0.00011535 2.36175e-05 -7.13585e-06  0.000101209 1.50642e-05 -5.17501e-06  8.52176e-05 1.85786e-06 -6.03313e-06  7.97665e-05 -3.61131e-05 -9.46003e-06  4.48914e-05 8.13693e-05 -7.47232e-06  4.59811e-05 2.44118e-05 -2.71139e-06  4.38725e-05 1.59917e-05 5.56752e-07  4.37195e-05 -3.15801e-07 -1.94489e-06  4.67329e-05 -4.08785e-05 -6.4509e-06  2.52787e-05 6.86926e-05 -5.39675e-06  2.87969e-05 1.78721e-05 6.08951e-07  2.27112e-05 3.16494e-06 4.68018e-06  1.91919e-05 -1.2422e-05 4.76497e-07  2.43313e-05 -5.45057e-05 -5.65105e-06  7.07967e-06 5.35384e-05 -6.06735e-06  9.12245e-06 1.00972e-05 -1.85364e-06  7.06013e-06 -8.23803e-06 5.6903e-07  5.56687e-06 -2.30671e-05 -2.60291e-06  7.16892e-06 -6.50458e-05 -7.47894e-06  -1.54926e-05 4.85781e-05 -9.52059e-06  -1.82035e-05 7.79615e-06 -6.45657e-06  -2.5019e-05 -1.03233e-05 -5.51585e-06  -2.8353e-05 -2.63682e-05 -7.42204e-06  -2.78076e-05 -6.65701e-05 -1.00813e-05  
            </DataArray>
            <DataArray type="Float64" Name="Traction" NumberOfComponents="3" format="ascii">
               0.00194557 0.00174065 -0.00110615  -0.000407831 0.0018115 -0.00110615  -9.93025e-05 0.00195127 -0.00110615  0.000125101 0.00217547 -0.00110615  -0.00241091 0.00199377 -0.00110615  0.00246104 -0.000482529 -0.00110615  0.000178902 0.000314481 -0.00110615  0.000135409 0.000852136 -0.00110615  0.000294629 0.000320319 -0.00110615  -0.00182821 -3.05844e-05 -0.00110615  0.00247249 -0.00024629 -0.00110615  0.00036345 0.00010113 -0.00110615  8.62489e-05 5.99333e-05 -0.00110615  -5.50942e-05 -9.02007e-05 -0.00110615  -0.00229908 4.87973e-05 -0.00110615  0.00244022 3.50354e-05 -0.00110615  -2.50682e-05 -5.5661e-05 -0.00110615  -6.95606e-05 -0.000673764 -0.00110615  -6.11499e-05 -0.000587941 -0.00110615  -0.000745591 -0.000553581 -0.00110615  0.00237548 -0.00276473 -0.00110615  -0.000186976 -0.00195689 -0.00110615  0.000211573 -0.00223461 -0.00110615  -0.000160638 -0.00117598 -0.00110615  0.000775838 0.000494591 -0.00110615  
            </DataArray>
         </PointData> 
      </Piece>
   </UnstructuredGrid> 
</VTKFile>
