<?xml version="1.0"?>
<VTKFile type="UnstructuredGrid" version="0.1" byte_order="LittleEndian">
   <UnstructuredGrid>
      <Piece NumberOfPoints="25" NumberOfCells="0" > 
         <Points> 
            <DataArray type="Float64" Name="Position" NumberOfComponents="3" format="ascii"> 
               0  0  20  
               0.75  0  20  
               1.5  0  20  
               2.25  0  20  
               3  0  20  
               0  0.75  20  
               0.75  0.75  20  
               1.5  0.75  20  
               2.25  0.75  20  
               3  0.75  20  
               0  1.5  20  
               0.75  1.5  20  
               1.5  1.5  20  
               2.25  1.5  20  
               3  1.5  20  
               0  2.25  20  
               0.75  2.25  20  
               1.5  2.25  20  
               2.25  2.25  20  
               3  2.25  20  
               0  3  20  
               0.75  3  20  
               1.5  3  20  
               2.25  3  20  
               3  3  20  
            </DataArray>
         </Points> 

         <Cells>
            <DataArray type="Int32" Name="connectivity" NumberOfComponents="1" format="ascii">
               
            </DataArray> 
            <DataArray type="Int32" Name="offsets" NumberOfComponents="1" format="ascii">
               
            </DataArray>
            <DataArray type="UInt8"  Name="types" NumberOfComponents="1" format="ascii">
               
            </DataArray>
         </Cells>
         <PointData Scalars="Rank " Vectors="Displacement Velocity Traction ">
            <DataArray type="UInt32" Name="Rank" NumberOfComponents="1" format="ascii">
               0 0 0 0 0 0 0 0 0 0 0 0 0 0 0 0 0 0 0 0 0 0 0 0 0 
            </DataArray>
            <DataArray type="Float64" Name="Displacement" NumberOfComponents="3" format="ascii">
               0.00270971 0.0026928 -0.0116911  0.00014365 0.00454923 -0.0113827  -0.00111844 0.00555143 -0.0108458  -0.0010806 0.00399004 -0.0114206  -0.00290858 0.00446997 -0.0117053  0.00455075 0.000127104 -0.01138  0.00129324 0.00129019 -0.0100714  -0.000337732 0.00207087 -0.00899874  -0.00124267 0.00131295 -0.0103969  -0.00385898 0.00207037 -0.011228  0.00554548 -0.00112937 -0.0108347  0.0020691 -0.000347761 -0.00899509  3.54365e-05 2.86094e-05 -0.00713502  -0.00191496 0.000285879 -0.00905174  -0.00536859 0.00115349 -0.0108203  0.00397425 -0.00107404 -0.0114036  0.00130726 -0.00124389 -0.0103916  0.00028956 -0.00191346 -0.00904885  -0.00119658 -0.00119255 -0.0101657  -0.00442469 -0.000219536 -0.0113652  0.00445038 -0.00288851 -0.0116721  0.00205864 -0.00384881 -0.0112134  0.00115551 -0.00536 -0.0108081  -0.000208601 -0.00441293 -0.0113575  -0.00272864 -0.00273888 -0.0116158  
            </DataArray>
            <DataArray type="Float64" Name="Velocity" NumberOfComponents="3" format="ascii">
               0.00473656 0.00471463 -0.0188089  0.000134319 0.0080628 -0.0177432  -0.00149136 0.0102018 -0.0165552  -0.00143813 0.00723562 -0.0177283  -0.00514672 0.00710735 -0.0187758  0.00810022 0.000116977 -0.0177627  0.00200157 0.00197314 -0.0147756  -0.000380899 0.00328149 -0.0122548  -0.0017943 0.00189676 -0.0150963  -0.00705014 0.00272339 -0.0175193  0.0102348 -0.00151642 -0.016569  0.00330899 -0.000401013 -0.0122514  0.000145158 0.000124901 -0.00816524  -0.00297483 0.00037596 -0.0123176  -0.00989964 0.00158051 -0.0165149  0.00725839 -0.00147461 -0.0177319  0.00191793 -0.00182075 -0.0150881  0.000393594 -0.00299969 -0.0123141  -0.00180052 -0.0018238 -0.0148831  -0.0078567 -0.000218462 -0.0176973  0.00713166 -0.00517956 -0.0187951  0.00274904 -0.00708117 -0.0175251  0.00159625 -0.00992926 -0.0165265  -0.000204419 -0.00788342 -0.0177133  -0.00470455 -0.00472319 -0.0186818  
            </DataArray>
            <DataArray type="Float64" Name="Traction" NumberOfComponents="3" format="ascii">
               0 0 0  0 0 0  0 0 0  0 0 0  0 0 0  0 0 0  0 0 0  0 0 0  0 0 0  0 0 0  0 0 0  0 0 0  0 0 0  0 0 0  0 0 0  0 0 0  0 0 0  0 0 0  0 0 0  0 0 0  0 0 0  0 0 0  0 0 0  0 0 0  0 0 0  
            </DataArray>
         </PointData> 
      </Piece>
   </UnstructuredGrid> 
</VTKFile>
