<?xml version="1.0"?>
<VTKFile type="UnstructuredGrid" version="0.1" byte_order="LittleEndian">
   <UnstructuredGrid>
      <Piece NumberOfPoints="25" NumberOfCells="0" > 
         <Points> 
            <DataArray type="Float64" Name="Position" NumberOfComponents="3" format="ascii"> 
               0  0  20  
               0.75  0  20  
               1.5  0  20  
               2.25  0  20  
               3  0  20  
               0  0.75  20  
               0.75  0.75  20  
               1.5  0.75  20  
               2.25  0.75  20  
               3  0.75  20  
               0  1.5  20  
               0.75  1.5  20  
               1.5  1.5  20  
               2.25  1.5  20  
               3  1.5  20  
               0  2.25  20  
               0.75  2.25  20  
               1.5  2.25  20  
               2.25  2.25  20  
               3  2.25  20  
               0  3  20  
               0.75  3  20  
               1.5  3  20  
               2.25  3  20  
               3  3  20  
            </DataArray>
         </Points> 

         <Cells>
            <DataArray type="Int32" Name="connectivity" NumberOfComponents="1" format="ascii">
               
            </DataArray> 
            <DataArray type="Int32" Name="offsets" NumberOfComponents="1" format="ascii">
               
            </DataArray>
            <DataArray type="UInt8"  Name="types" NumberOfComponents="1" format="ascii">
               
            </DataArray>
         </Cells>
         <PointData Scalars="Rank " Vectors="Displacement Velocity Traction ">
            <DataArray type="UInt32" Name="Rank" NumberOfComponents="1" format="ascii">
               0 0 0 0 0 0 0 0 0 0 0 0 0 0 0 0 0 0 0 0 0 0 0 0 0 
            </DataArray>
            <DataArray type="Float64" Name="Displacement" NumberOfComponents="3" format="ascii">
               3.98325e-08 3.97917e-08 -1.38309e-07  7.38173e-10 6.86738e-08 -1.24669e-07  -4.87167e-09 9.30757e-08 -1.12189e-07  -5.97958e-09 6.54329e-08 -1.2403e-07  -4.38849e-08 4.92503e-08 -1.37877e-07  6.87151e-08 7.51907e-10 -1.24671e-07  1.23992e-08 1.24112e-08 -9.20802e-08  -1.29934e-09 2.26511e-08 -6.23169e-08  -1.13615e-08 1.10329e-08 -9.21178e-08  -6.51741e-08 9.98646e-09 -1.2407e-07  9.30517e-08 -4.8588e-09 -1.1219e-07  2.26527e-08 -1.2812e-09 -6.23178e-08  1.26609e-09 1.25966e-09 -1.58369e-08  -2.11866e-08 1.34429e-09 -6.24446e-08  -9.20843e-08 5.36574e-09 -1.12378e-07  6.54061e-08 -5.98078e-09 -1.24027e-07  1.10288e-08 -1.13705e-08 -9.21209e-08  1.36494e-09 -2.11926e-08 -6.24487e-08  -1.20244e-08 -1.2015e-08 -9.21742e-08  -6.85155e-08 -1.35645e-09 -1.24698e-07  4.92644e-08 -4.39049e-08 -1.3787e-07  9.98287e-09 -6.51817e-08 -1.24075e-07  5.41705e-09 -9.21226e-08 -1.12392e-07  -1.378e-09 -6.86193e-08 -1.24706e-07  -3.98346e-08 -3.9903e-08 -1.38237e-07  
            </DataArray>
            <DataArray type="Float64" Name="Velocity" NumberOfComponents="3" format="ascii">
               1.37548e-07 1.37292e-07 -4.95364e-07  9.74025e-10 2.41245e-07 -4.45929e-07  -2.70254e-08 3.21102e-07 -4.01448e-07  -2.95967e-08 2.24023e-07 -4.42097e-07  -1.58644e-07 1.87316e-07 -4.93775e-07  2.41494e-07 1.05178e-09 -4.45947e-07  4.86717e-08 4.87463e-08 -3.33258e-07  -6.90777e-09 8.80951e-08 -2.35547e-07  -4.32411e-08 4.18116e-08 -3.33842e-07  -2.22683e-07 5.05008e-08 -4.42135e-07  3.20952e-07 -2.69453e-08 -4.01451e-07  8.81011e-08 -6.78197e-09 -2.35552e-07  6.31298e-09 6.27132e-09 -8.65677e-08  -8.05306e-08 7.12535e-09 -2.36256e-07  -3.1602e-07 2.93835e-08 -4.02383e-07  2.23839e-07 -2.95975e-08 -4.42069e-07  4.17788e-08 -4.3305e-08 -3.33862e-07  7.26336e-09 -8.05763e-08 -2.36276e-07  -4.66511e-08 -4.6607e-08 -3.33794e-07  -2.40229e-07 -4.14538e-09 -4.46054e-07  1.8739e-07 -1.58769e-07 -4.93726e-07  5.04816e-08 -2.22733e-07 -4.4217e-07  2.9688e-08 -3.16262e-07 -4.02468e-07  -4.25783e-09 -2.40887e-07 -4.46107e-07  -1.37756e-07 -1.38208e-07 -4.95123e-07  
            </DataArray>
            <DataArray type="Float64" Name="Traction" NumberOfComponents="3" format="ascii">
               -3.11214e-07 -3.16706e-07 -4.64781e-06  -8.72261e-08 -5.37482e-07 -4.64781e-06  6.18677e-08 -7.65323e-07 -4.64781e-06  7.74984e-08 -5.20574e-07 -4.64781e-06  3.00226e-07 -3.30465e-07 -4.64781e-06  -5.38724e-07 -9.1778e-08 -4.64781e-06  -2.12429e-07 -2.1091e-07 -4.64781e-06  1.5296e-07 -3.56031e-07 -4.64781e-06  2.07645e-07 -2.07496e-07 -4.64781e-06  5.16464e-07 -1.00047e-07 -4.64781e-06  -7.69801e-07 6.1746e-08 -4.64781e-06  -3.59314e-07 1.52647e-07 -4.64781e-06  2.21893e-07 2.20781e-07 -4.64781e-06  3.5798e-07 1.31258e-07 -4.64781e-06  7.72452e-07 4.66034e-08 -4.64781e-06  -5.21373e-07 7.83479e-08 -4.64781e-06  -2.08045e-07 2.06807e-07 -4.64781e-06  1.3079e-07 3.55634e-07 -4.64781e-06  2.07985e-07 2.09582e-07 -4.64781e-06  5.37113e-07 8.45548e-08 -4.64781e-06  -3.26405e-07 3.02e-07 -4.64781e-06  -9.58752e-08 5.15616e-07 -4.64781e-06  5.55791e-08 7.67794e-07 -4.64781e-06  9.88279e-08 5.40208e-07 -4.64781e-06  3.158e-07 3.04814e-07 -4.64781e-06  
            </DataArray>
         </PointData> 
      </Piece>
   </UnstructuredGrid> 
</VTKFile>
