<?xml version="1.0"?>
<VTKFile type="UnstructuredGrid" version="0.1" byte_order="LittleEndian">
   <UnstructuredGrid>
      <Piece NumberOfPoints="25" NumberOfCells="0" > 
         <Points> 
            <DataArray type="Float64" Name="Position" NumberOfComponents="3" format="ascii"> 
               0  0  20  
               0.75  0  20  
               1.5  0  20  
               2.25  0  20  
               3  0  20  
               0  0.75  20  
               0.75  0.75  20  
               1.5  0.75  20  
               2.25  0.75  20  
               3  0.75  20  
               0  1.5  20  
               0.75  1.5  20  
               1.5  1.5  20  
               2.25  1.5  20  
               3  1.5  20  
               0  2.25  20  
               0.75  2.25  20  
               1.5  2.25  20  
               2.25  2.25  20  
               3  2.25  20  
               0  3  20  
               0.75  3  20  
               1.5  3  20  
               2.25  3  20  
               3  3  20  
            </DataArray>
         </Points> 

         <Cells>
            <DataArray type="Int32" Name="connectivity" NumberOfComponents="1" format="ascii">
               
            </DataArray> 
            <DataArray type="Int32" Name="offsets" NumberOfComponents="1" format="ascii">
               
            </DataArray>
            <DataArray type="UInt8"  Name="types" NumberOfComponents="1" format="ascii">
               
            </DataArray>
         </Cells>
         <PointData Scalars="Rank " Vectors="Displacement Velocity Traction ">
            <DataArray type="UInt32" Name="Rank" NumberOfComponents="1" format="ascii">
               0 0 0 0 0 0 0 0 0 0 0 0 0 0 0 0 0 0 0 0 0 0 0 0 0 
            </DataArray>
            <DataArray type="Float64" Name="Displacement" NumberOfComponents="3" format="ascii">
               6.746e-05 6.87858e-05 -0.000274765  -1.41009e-06 0.000120441 -0.000262461  -3.99729e-05 0.000143121 -0.000244375  -3.2452e-05 0.000100188 -0.000258607  -7.77169e-05 0.00012418 -0.000270325  0.000120863 5.22728e-08 -0.000263571  3.7033e-05 3.65759e-05 -0.0002238  -9.98077e-06 5.82333e-05 -0.000195831  -3.19316e-05 3.47097e-05 -0.000231332  -9.66571e-05 6.1142e-05 -0.000252072  0.000145154 -3.89153e-05 -0.000246388  5.986e-05 -9.08324e-06 -0.000196205  2.91581e-06 2.94721e-06 -0.000149657  -5.04283e-05 9.87659e-06 -0.000197025  -0.000134905 4.01628e-05 -0.000242013  0.000103217 -3.4352e-05 -0.000260717  3.68146e-05 -3.20699e-05 -0.000231401  1.06341e-05 -5.08401e-05 -0.000196995  -3.06984e-05 -3.1817e-05 -0.000225359  -0.00011305 1.33331e-07 -0.000259133  0.000126778 -8.1185e-05 -0.000274602  6.35677e-05 -9.81385e-05 -0.000253417  4.09468e-05 -0.000136118 -0.00024332  -3.53336e-07 -0.000114868 -0.000260602  -6.75219e-05 -6.73157e-05 -0.000269389  
            </DataArray>
            <DataArray type="Float64" Name="Velocity" NumberOfComponents="3" format="ascii">
               7.69565e-05 8.1408e-05 -0.000340054  -6.78096e-07 0.000137629 -0.00033595  -5.01276e-05 0.000161266 -0.000319537  -4.38247e-05 0.000115014 -0.000335241  -8.90353e-05 0.000150729 -0.000339068  0.000134164 3.70422e-06 -0.000334983  4.11879e-05 4.44945e-05 -0.000301935  -1.77121e-05 7.01135e-05 -0.000276533  -4.61959e-05 4.58509e-05 -0.000314125  -0.000114577 7.95207e-05 -0.000326482  0.000158627 -4.58194e-05 -0.000319523  6.73692e-05 -1.3943e-05 -0.00027702  -2.71775e-06 5.69418e-07 -0.000230605  -6.56712e-05 1.12227e-05 -0.000277671  -0.000154902 4.44432e-05 -0.000316381  0.000114028 -4.09702e-05 -0.000336216  4.39744e-05 -4.32927e-05 -0.000314881  8.40684e-06 -6.348e-05 -0.000278006  -4.22041e-05 -4.03277e-05 -0.000304351  -0.000131614 -6.86371e-06 -0.000332552  0.000150454 -8.73836e-05 -0.000340514  7.87385e-05 -0.00011226 -0.00032696  4.24946e-05 -0.000153277 -0.000316776  -1.0052e-05 -0.000130875 -0.000332535  -8.4616e-05 -8.12808e-05 -0.000335385  
            </DataArray>
            <DataArray type="Float64" Name="Traction" NumberOfComponents="3" format="ascii">
               0 0 0  0 0 0  0 0 0  0 0 0  0 0 0  0 0 0  0 0 0  0 0 0  0 0 0  0 0 0  0 0 0  0 0 0  0 0 0  0 0 0  0 0 0  0 0 0  0 0 0  0 0 0  0 0 0  0 0 0  0 0 0  0 0 0  0 0 0  0 0 0  0 0 0  
            </DataArray>
         </PointData> 
      </Piece>
   </UnstructuredGrid> 
</VTKFile>
