<?xml version="1.0"?>
<VTKFile type="UnstructuredGrid" version="0.1" byte_order="LittleEndian">
   <UnstructuredGrid>
      <Piece NumberOfPoints="25" NumberOfCells="0" > 
         <Points> 
            <DataArray type="Float64" Name="Position" NumberOfComponents="3" format="ascii"> 
               0  0  15  
               0.75  0  15  
               1.5  0  15  
               2.25  0  15  
               3  0  15  
               0  0.75  15  
               0.75  0.75  15  
               1.5  0.75  15  
               2.25  0.75  15  
               3  0.75  15  
               0  1.5  15  
               0.75  1.5  15  
               1.5  1.5  15  
               2.25  1.5  15  
               3  1.5  15  
               0  2.25  15  
               0.75  2.25  15  
               1.5  2.25  15  
               2.25  2.25  15  
               3  2.25  15  
               0  3  15  
               0.75  3  15  
               1.5  3  15  
               2.25  3  15  
               3  3  15  
            </DataArray>
         </Points> 

         <Cells>
            <DataArray type="Int32" Name="connectivity" NumberOfComponents="1" format="ascii">
               
            </DataArray> 
            <DataArray type="Int32" Name="offsets" NumberOfComponents="1" format="ascii">
               
            </DataArray>
            <DataArray type="UInt8"  Name="types" NumberOfComponents="1" format="ascii">
               
            </DataArray>
         </Cells>
         <PointData Scalars="Rank " Vectors="Displacement Velocity Traction ">
            <DataArray type="UInt32" Name="Rank" NumberOfComponents="1" format="ascii">
               0 0 0 0 0 0 0 0 0 0 0 0 0 0 0 0 0 0 0 0 0 0 0 0 0 
            </DataArray>
            <DataArray type="Float64" Name="Displacement" NumberOfComponents="3" format="ascii">
               0.00156173 0.00171848 -0.00252427  0.00144119 0.000159696 -0.00252758  0.00104885 -0.000360707 -0.00244067  0.000606814 -0.000368838 -0.00254385  0.000434681 -0.00126168 -0.00254868  -7.72107e-05 0.00159759 -0.00251735  -9.43998e-05 0.000138623 -0.00233093  -0.000382649 -0.000225091 -0.00217581  -0.00065393 -0.000368129 -0.00242318  -0.000639843 -0.00145576 -0.00249145  -0.000585801 0.00121367 -0.00243005  -0.000449743 -0.000163268 -0.00217595  -0.00063106 -0.00041601 -0.00187583  -0.000806207 -0.000665336 -0.00218674  -0.000667214 -0.00191462 -0.00243563  -0.000621972 0.000777788 -0.00253549  -0.000615339 -0.000446351 -0.0024248  -0.000897933 -0.000597012 -0.00218712  -0.00118763 -0.000968186 -0.00235207  -0.00120753 -0.0022911 -0.00252512  -0.00154517 0.000604929 -0.00252723  -0.00173024 -0.000439071 -0.00248301  -0.00217033 -0.000465446 -0.0024257  -0.00252987 -0.00099713 -0.00251445  -0.00263587 -0.00240356 -0.00251344  
            </DataArray>
            <DataArray type="Float64" Name="Velocity" NumberOfComponents="3" format="ascii">
               0.000464692 0.000621305 -0.00242279  0.00040256 2.56822e-05 -0.00242684  0.000250546 -0.000217696 -0.00235604  9.50423e-05 -0.00020837 -0.00245084  2.64366e-05 -0.000523284 -0.0024442  -0.000126072 0.000557754 -0.00242146  -0.000154183 -4.31262e-06 -0.00225583  -0.000296703 -0.000177246 -0.00211842  -0.000425635 -0.000221831 -0.00234526  -0.000431016 -0.000621122 -0.00240397  -0.000352998 0.00040229 -0.00234641  -0.000310944 -0.000149783 -0.00211676  -0.000385905 -0.000252564 -0.00184573  -0.000465884 -0.000346229 -0.0021316  -0.000423398 -0.00081964 -0.00235504  -0.000349907 0.000243195 -0.00243975  -0.000362972 -0.000278252 -0.00234366  -0.000491296 -0.000328407 -0.00213061  -0.000631375 -0.000478362 -0.00227979  -0.000660236 -0.000986992 -0.00243011  -0.000689343 0.000172769 -0.00242025  -0.000786814 -0.000280714 -0.00239424  -0.000987697 -0.000279606 -0.00234531  -0.00116062 -0.000500994 -0.00242219  -0.00122778 -0.00105028 -0.00241405  
            </DataArray>
            <DataArray type="Float64" Name="Traction" NumberOfComponents="3" format="ascii">
               0.0320148 0.0331699 -0.089989  0.00777889 0.038569 -0.089989  -0.00855282 0.0399492 -0.089989  -0.025479 0.0398819 -0.089989  -0.0481625 0.0426277 -0.089989  0.0391231 0.00926611 -0.089989  0.0142864 0.015587 -0.089989  -0.00119982 0.0159691 -0.089989  -0.019681 0.0158046 -0.089989  -0.0430269 0.0208564 -0.089989  0.0404964 -0.00744953 -0.089989  0.0141782 -9.162e-05 -0.089989  -0.00142686 -0.000197248 -0.089989  -0.0202697 -0.00103264 -0.089989  -0.0434611 0.00476113 -0.089989  0.0402079 -0.0248343 -0.089989  0.0145996 -0.018948 -0.089989  -0.0020196 -0.0194684 -0.089989  -0.0202795 -0.0196499 -0.089989  -0.0389863 -0.0147224 -0.089989  0.0431478 -0.048592 -0.089989  0.0200461 -0.0422246 -0.089989  0.00423722 -0.0420068 -0.089989  -0.014988 -0.0384794 -0.089989  -0.0300241 -0.029746 -0.089989  
            </DataArray>
         </PointData> 
      </Piece>
   </UnstructuredGrid> 
</VTKFile>
