<?xml version="1.0"?>
<VTKFile type="UnstructuredGrid" version="0.1" byte_order="LittleEndian">
   <UnstructuredGrid>
      <Piece NumberOfPoints="25" NumberOfCells="0" > 
         <Points> 
            <DataArray type="Float64" Name="Position" NumberOfComponents="3" format="ascii"> 
               0  0  20  
               0.75  0  20  
               1.5  0  20  
               2.25  0  20  
               3  0  20  
               0  0.75  20  
               0.75  0.75  20  
               1.5  0.75  20  
               2.25  0.75  20  
               3  0.75  20  
               0  1.5  20  
               0.75  1.5  20  
               1.5  1.5  20  
               2.25  1.5  20  
               3  1.5  20  
               0  2.25  20  
               0.75  2.25  20  
               1.5  2.25  20  
               2.25  2.25  20  
               3  2.25  20  
               0  3  20  
               0.75  3  20  
               1.5  3  20  
               2.25  3  20  
               3  3  20  
            </DataArray>
         </Points> 

         <Cells>
            <DataArray type="Int32" Name="connectivity" NumberOfComponents="1" format="ascii">
               
            </DataArray> 
            <DataArray type="Int32" Name="offsets" NumberOfComponents="1" format="ascii">
               
            </DataArray>
            <DataArray type="UInt8"  Name="types" NumberOfComponents="1" format="ascii">
               
            </DataArray>
         </Cells>
         <PointData Scalars="Rank " Vectors="Displacement Velocity Traction ">
            <DataArray type="UInt32" Name="Rank" NumberOfComponents="1" format="ascii">
               0 0 0 0 0 0 0 0 0 0 0 0 0 0 0 0 0 0 0 0 0 0 0 0 0 
            </DataArray>
            <DataArray type="Float64" Name="Displacement" NumberOfComponents="3" format="ascii">
               1.84426e-05 1.74915e-05 -7.19172e-05  -7.30221e-07 3.37189e-05 -6.5299e-05  -9.39807e-06 4.20391e-05 -5.8671e-05  -6.46443e-06 2.8493e-05 -6.2977e-05  -2.18299e-05 3.167e-05 -7.00543e-05  3.52413e-05 -1.70298e-06 -6.62292e-05  1.03852e-05 8.81802e-06 -5.06837e-05  -6.44321e-07 1.49773e-05 -4.00085e-05  -5.45579e-06 7.28398e-06 -5.1327e-05  -2.64138e-05 1.35171e-05 -6.19704e-05  4.4219e-05 -1.0539e-05 -5.97473e-05  1.7025e-05 -1.63011e-06 -4.00408e-05  2.94181e-06 1.68359e-06 -2.40566e-05  -1.16714e-05 2.90123e-06 -4.04385e-05  -3.9343e-05 1.19359e-05 -5.8691e-05  3.05064e-05 -8.6031e-06 -6.37094e-05  9.19724e-06 -6.53415e-06 -5.11099e-05  4.38609e-06 -1.25023e-05 -4.02823e-05  -6.16476e-06 -7.23397e-06 -5.0865e-05  -3.18585e-05 2.72972e-06 -6.48404e-05  3.2919e-05 -2.43889e-05 -7.16686e-05  1.48854e-05 -2.79523e-05 -6.24633e-05  1.29426e-05 -4.02798e-05 -5.9042e-05  3.49284e-06 -3.27124e-05 -6.53725e-05  -1.62518e-05 -1.71421e-05 -7.07708e-05  
            </DataArray>
            <DataArray type="Float64" Name="Velocity" NumberOfComponents="3" format="ascii">
               3.26381e-05 3.32601e-05 -0.000122072  -6.93592e-07 5.67743e-05 -0.000115414  -1.89361e-05 6.58366e-05 -0.000106925  -1.55152e-05 4.64374e-05 -0.000113339  -3.69405e-05 5.81128e-05 -0.000119067  5.72536e-05 1.56357e-07 -0.000116249  1.81016e-05 1.76707e-05 -9.69842e-05  -4.09523e-06 2.7219e-05 -8.43486e-05  -1.45674e-05 1.63678e-05 -0.000100586  -4.42442e-05 2.85708e-05 -0.000109924  6.73362e-05 -1.83873e-05 -0.000108357  2.84157e-05 -3.69312e-06 -8.45745e-05  1.87561e-06 1.63942e-06 -6.3186e-05  -2.27568e-05 4.45993e-06 -8.4907e-05  -6.10304e-05 1.89787e-05 -0.000105304  4.86367e-05 -1.69429e-05 -0.00011479  1.7948e-05 -1.49686e-05 -0.000100538  5.27705e-06 -2.34964e-05 -8.4874e-05  -1.3932e-05 -1.52098e-05 -9.7741e-05  -5.19054e-05 3.008e-07 -0.000113176  6.0279e-05 -3.93454e-05 -0.000122071  3.06449e-05 -4.56036e-05 -0.000110861  1.99296e-05 -6.242e-05 -0.000106427  5.10785e-07 -5.3744e-05 -0.000114522  -3.138e-05 -3.18768e-05 -0.000118459  
            </DataArray>
            <DataArray type="Float64" Name="Traction" NumberOfComponents="3" format="ascii">
               0 0 0  0 0 0  0 0 0  0 0 0  0 0 0  0 0 0  0 0 0  0 0 0  0 0 0  0 0 0  0 0 0  0 0 0  0 0 0  0 0 0  0 0 0  0 0 0  0 0 0  0 0 0  0 0 0  0 0 0  0 0 0  0 0 0  0 0 0  0 0 0  0 0 0  
            </DataArray>
         </PointData> 
      </Piece>
   </UnstructuredGrid> 
</VTKFile>
