<?xml version="1.0"?>
<VTKFile type="UnstructuredGrid" version="0.1" byte_order="LittleEndian">
   <UnstructuredGrid>
      <Piece NumberOfPoints="25" NumberOfCells="0" > 
         <Points> 
            <DataArray type="Float64" Name="Position" NumberOfComponents="3" format="ascii"> 
               0  0  20  
               0.75  0  20  
               1.5  0  20  
               2.25  0  20  
               3  0  20  
               0  0.75  20  
               0.75  0.75  20  
               1.5  0.75  20  
               2.25  0.75  20  
               3  0.75  20  
               0  1.5  20  
               0.75  1.5  20  
               1.5  1.5  20  
               2.25  1.5  20  
               3  1.5  20  
               0  2.25  20  
               0.75  2.25  20  
               1.5  2.25  20  
               2.25  2.25  20  
               3  2.25  20  
               0  3  20  
               0.75  3  20  
               1.5  3  20  
               2.25  3  20  
               3  3  20  
            </DataArray>
         </Points> 

         <Cells>
            <DataArray type="Int32" Name="connectivity" NumberOfComponents="1" format="ascii">
               
            </DataArray> 
            <DataArray type="Int32" Name="offsets" NumberOfComponents="1" format="ascii">
               
            </DataArray>
            <DataArray type="UInt8"  Name="types" NumberOfComponents="1" format="ascii">
               
            </DataArray>
         </Cells>
         <PointData Scalars="Rank " Vectors="Displacement Velocity Traction ">
            <DataArray type="UInt32" Name="Rank" NumberOfComponents="1" format="ascii">
               0 0 0 0 0 0 0 0 0 0 0 0 0 0 0 0 0 0 0 0 0 0 0 0 0 
            </DataArray>
            <DataArray type="Float64" Name="Displacement" NumberOfComponents="3" format="ascii">
               0.000230363 0.000238247 -0.00104009  2.1539e-06 0.000407233 -0.00103215  -0.000143368 0.000480554 -0.00098664  -0.000128926 0.000344716 -0.00103239  -0.000267184 0.000445509 -0.00104447  0.000398604 9.2338e-06 -0.00102854  0.000122419 0.000129712 -0.000934147  -4.96349e-05 0.000205821 -0.000859667  -0.000135527 0.000135197 -0.000970509  -0.00034165 0.000233946 -0.00100896  0.000473493 -0.000135436 -0.000984641  0.000199508 -4.28957e-05 -0.000860498  -5.88774e-06 1.91491e-07 -0.000723124  -0.000195441 3.29546e-05 -0.000863578  -0.000465859 0.000132317 -0.000981772  0.000340149 -0.000120892 -0.00103226  0.000130319 -0.000128635 -0.000972026  2.75488e-05 -0.000189384 -0.00086413  -0.000125046 -0.000119353 -0.00094183  -0.000396022 -2.03726e-05 -0.00102728  0.000441087 -0.000260401 -0.00104214  0.00022912 -0.00033444 -0.00100795  0.000127717 -0.000459483 -0.000980032  -2.62111e-05 -0.000390746 -0.00102458  -0.000250282 -0.000243436 -0.00103223  
            </DataArray>
            <DataArray type="Float64" Name="Velocity" NumberOfComponents="3" format="ascii">
               0.000216361 0.000220297 -0.00103482  1.12147e-05 0.000371429 -0.00104718  -0.000128205 0.00043734 -0.00101686  -0.000125256 0.000320329 -0.00105673  -0.000247408 0.000417199 -0.0010522  0.000360761 1.37184e-05 -0.00104039  0.000112434 0.00012079 -0.000977754  -4.95045e-05 0.000190713 -0.000921877  -0.000135617 0.000132421 -0.00101764  -0.000318818 0.00022516 -0.00103605  0.000425459 -0.000122954 -0.00100969  0.000181198 -4.53745e-05 -0.000921863  -1.07331e-05 -5.59854e-06 -0.000807978  -0.000190149 2.92826e-05 -0.000926093  -0.000432065 0.000117972 -0.00101683  0.000308518 -0.000112161 -0.00105104  0.000123341 -0.000127828 -0.00101881  2.3424e-05 -0.000182234 -0.000926484  -0.000124153 -0.000115352 -0.000986871  -0.000371111 -3.05568e-05 -0.00104933  0.000404985 -0.000231704 -0.00103775  0.000213721 -0.000306956 -0.00103078  0.000112157 -0.000421133 -0.00101056  -3.40978e-05 -0.000359772 -0.00104211  -0.000239143 -0.000233639 -0.00103587  
            </DataArray>
            <DataArray type="Float64" Name="Traction" NumberOfComponents="3" format="ascii">
               -0.00159921 -0.00158671 -0.0118771  -0.00049572 -0.00286565 -0.0118771  0.000816459 -0.00332148 -0.0118771  0.000630904 -0.0021601 -0.0118771  0.00126848 -0.00252733 -0.0118771  -0.00286235 -0.000452333 -0.0118771  -0.00121167 -0.00118543 -0.0118771  0.000937763 -0.00184708 -0.0118771  0.00107753 -0.00121571 -0.0118771  0.00187174 -0.00128189 -0.0118771  -0.00333386 0.000876813 -0.0118771  -0.00188095 0.000986916 -0.0118771  0.000705861 0.000756169 -0.0118771  0.00167225 0.000188486 -0.0118771  0.00306793 -0.000188147 -0.0118771  -0.00218354 0.000667814 -0.0118771  -0.00125152 0.00111206 -0.0118771  0.000139504 0.00170871 -0.0118771  0.00105667 0.00109164 -0.0118771  0.00262091 0.000485442 -0.0118771  -0.00255249 0.00129158 -0.0118771  -0.00131622 0.00189002 -0.0118771  -0.00024254 0.00309031 -0.0118771  0.000452475 0.00264486 -0.0118771  0.00152486 0.00153542 -0.0118771  
            </DataArray>
         </PointData> 
      </Piece>
   </UnstructuredGrid> 
</VTKFile>
