<?xml version="1.0"?>
<VTKFile type="UnstructuredGrid" version="0.1" byte_order="LittleEndian">
   <UnstructuredGrid>
      <Piece NumberOfPoints="25" NumberOfCells="0" > 
         <Points> 
            <DataArray type="Float64" Name="Position" NumberOfComponents="3" format="ascii"> 
               0  0  20  
               0.75  0  20  
               1.5  0  20  
               2.25  0  20  
               3  0  20  
               0  0.75  20  
               0.75  0.75  20  
               1.5  0.75  20  
               2.25  0.75  20  
               3  0.75  20  
               0  1.5  20  
               0.75  1.5  20  
               1.5  1.5  20  
               2.25  1.5  20  
               3  1.5  20  
               0  2.25  20  
               0.75  2.25  20  
               1.5  2.25  20  
               2.25  2.25  20  
               3  2.25  20  
               0  3  20  
               0.75  3  20  
               1.5  3  20  
               2.25  3  20  
               3  3  20  
            </DataArray>
         </Points> 

         <Cells>
            <DataArray type="Int32" Name="connectivity" NumberOfComponents="1" format="ascii">
               
            </DataArray> 
            <DataArray type="Int32" Name="offsets" NumberOfComponents="1" format="ascii">
               
            </DataArray>
            <DataArray type="UInt8"  Name="types" NumberOfComponents="1" format="ascii">
               
            </DataArray>
         </Cells>
         <PointData Scalars="Rank " Vectors="Displacement Velocity Traction ">
            <DataArray type="UInt32" Name="Rank" NumberOfComponents="1" format="ascii">
               0 0 0 0 0 0 0 0 0 0 0 0 0 0 0 0 0 0 0 0 0 0 0 0 0 
            </DataArray>
            <DataArray type="Float64" Name="Displacement" NumberOfComponents="3" format="ascii">
               0.000141055 0.000146261 -0.000614318  -1.10595e-06 0.000251702 -0.000601937  -8.81498e-05 0.00029741 -0.000569982  -7.60764e-05 0.000211173 -0.00059889  -0.000163746 0.000270466 -0.000612085  0.000248008 3.90635e-06 -0.000601231  7.59072e-05 7.91524e-05 -0.000534091  -2.81514e-05 0.000125735 -0.000483672  -7.85005e-05 7.99652e-05 -0.000554177  -0.000208011 0.000139433 -0.000584325  0.000295611 -8.32522e-05 -0.000570786  0.00012381 -2.39192e-05 -0.000484387  -9.35988e-07 2.3218e-06 -0.000395257  -0.00011576 2.05605e-05 -0.000485988  -0.000285175 8.25512e-05 -0.000565655  0.000211483 -7.38187e-05 -0.000600737  7.91401e-05 -7.53262e-05 -0.000555016  1.82105e-05 -0.000113316 -0.000486285  -7.30454e-05 -7.1296e-05 -0.000538202  -0.000241132 -8.17858e-06 -0.000596834  0.000270857 -0.000163462 -0.000615017  0.000139324 -0.00020594 -0.000585204  8.08179e-05 -0.000283444 -0.000566238  -1.17138e-05 -0.000240499 -0.00059702  -0.000150267 -0.000146554 -0.000606556  
            </DataArray>
            <DataArray type="Float64" Name="Velocity" NumberOfComponents="3" format="ascii">
               0.000138649 0.000144671 -0.000655431  2.59156e-06 0.000245194 -0.000660083  -8.93534e-05 0.000288664 -0.000636791  -8.33284e-05 0.000209192 -0.000663704  -0.000162307 0.00027577 -0.00066372  0.00023693 7.71132e-06 -0.000655712  7.25517e-05 7.96537e-05 -0.000609876  -3.47342e-05 0.000126504 -0.00057036  -8.95461e-05 8.63087e-05 -0.000634604  -0.000210247 0.00014869 -0.000649267  0.00028029 -8.31337e-05 -0.000633058  0.000119188 -2.9425e-05 -0.000570773  -8.19422e-06 -2.64641e-06 -0.000493389  -0.000124925 1.97917e-05 -0.000572603  -0.000283702 7.89998e-05 -0.000634737  0.000202125 -7.41907e-05 -0.000661591  7.98205e-05 -8.31114e-05 -0.000635957  1.40677e-05 -0.000118977 -0.000573151  -8.13792e-05 -7.50508e-05 -0.000615063  -0.000242546 -1.77926e-05 -0.000658928  0.000269258 -0.000152837 -0.000657544  0.000141914 -0.000202269 -0.000647109  7.3945e-05 -0.0002767 -0.000631911  -2.28003e-05 -0.000235933 -0.000654996  -0.000156877 -0.000150652 -0.000653737  
            </DataArray>
            <DataArray type="Float64" Name="Traction" NumberOfComponents="3" format="ascii">
               0 0 0  0 0 0  0 0 0  0 0 0  0 0 0  0 0 0  0 0 0  0 0 0  0 0 0  0 0 0  0 0 0  0 0 0  0 0 0  0 0 0  0 0 0  0 0 0  0 0 0  0 0 0  0 0 0  0 0 0  0 0 0  0 0 0  0 0 0  0 0 0  0 0 0  
            </DataArray>
         </PointData> 
      </Piece>
   </UnstructuredGrid> 
</VTKFile>
