<?xml version="1.0"?>
<VTKFile type="UnstructuredGrid" version="0.1" byte_order="LittleEndian">
   <UnstructuredGrid>
      <Piece NumberOfPoints="25" NumberOfCells="0" > 
         <Points> 
            <DataArray type="Float64" Name="Position" NumberOfComponents="3" format="ascii"> 
               0  0  15  
               0.75  0  15  
               1.5  0  15  
               2.25  0  15  
               3  0  15  
               0  0.75  15  
               0.75  0.75  15  
               1.5  0.75  15  
               2.25  0.75  15  
               3  0.75  15  
               0  1.5  15  
               0.75  1.5  15  
               1.5  1.5  15  
               2.25  1.5  15  
               3  1.5  15  
               0  2.25  15  
               0.75  2.25  15  
               1.5  2.25  15  
               2.25  2.25  15  
               3  2.25  15  
               0  3  15  
               0.75  3  15  
               1.5  3  15  
               2.25  3  15  
               3  3  15  
            </DataArray>
         </Points> 

         <Cells>
            <DataArray type="Int32" Name="connectivity" NumberOfComponents="1" format="ascii">
               
            </DataArray> 
            <DataArray type="Int32" Name="offsets" NumberOfComponents="1" format="ascii">
               
            </DataArray>
            <DataArray type="UInt8"  Name="types" NumberOfComponents="1" format="ascii">
               
            </DataArray>
         </Cells>
         <PointData Scalars="Rank " Vectors="Displacement Velocity Traction ">
            <DataArray type="UInt32" Name="Rank" NumberOfComponents="1" format="ascii">
               0 0 0 0 0 0 0 0 0 0 0 0 0 0 0 0 0 0 0 0 0 0 0 0 0 
            </DataArray>
            <DataArray type="Float64" Name="Displacement" NumberOfComponents="3" format="ascii">
               0 0 0  0 0 0  0 0 0  0 0 0  0 0 0  0 0 0  0 0 0  0 0 0  0 0 0  0 0 0  0 0 0  0 0 0  0 0 0  0 0 0  0 0 0  0 0 0  0 0 0  0 0 0  0 0 0  0 0 0  0 0 0  0 0 0  0 0 0  0 0 0  0 0 0  
            </DataArray>
            <DataArray type="Float64" Name="Velocity" NumberOfComponents="3" format="ascii">
               0 0 0  0 0 0  0 0 0  0 0 0  0 0 0  0 0 0  0 0 0  0 0 0  0 0 0  0 0 0  0 0 0  0 0 0  0 0 0  0 0 0  0 0 0  0 0 0  0 0 0  0 0 0  0 0 0  0 0 0  0 0 0  0 0 0  0 0 0  0 0 0  0 0 0  
            </DataArray>
            <DataArray type="Float64" Name="Traction" NumberOfComponents="3" format="ascii">
               0.000174796 0.00017967 -3.78343e-05  -7.35404e-05 0.000103723 -3.78343e-05  -2.79073e-05 5.16702e-06 -3.78343e-05  2.28614e-05 0.00010123 -3.78343e-05  -0.000200429 0.000223564 -3.78343e-05  0.000188334 -5.84363e-05 -3.78343e-05  1.83742e-05 -9.41799e-06 -3.78343e-05  3.35329e-06 1.65276e-05 -3.78343e-05  1.14588e-05 8.99163e-06 -3.78343e-05  -0.000240999 2.2013e-05 -3.78343e-05  0.000188525 -1.21559e-05 -3.78343e-05  4.03685e-05 -1.18482e-06 -3.78343e-05  8.23021e-06 1.89852e-06 -3.78343e-05  2.17926e-05 7.27614e-06 -3.78343e-05  -0.000283883 6.32485e-06 -3.78343e-05  0.000212705 2.904e-05 -3.78343e-05  2.07781e-05 1.39158e-05 -3.78343e-05  1.20884e-05 8.43793e-07 -3.78343e-05  2.11873e-05 9.39626e-06 -3.78343e-05  -9.74494e-05 -2.32078e-05 -3.78343e-05  0.000234418 -0.000196924 -3.78343e-05  1.42101e-05 -0.000178226 -3.78343e-05  2.4884e-05 -0.00015341 -3.78343e-05  2.56909e-05 -1.27023e-05 -3.78343e-05  0.000109907 7.22649e-05 -3.78343e-05  
            </DataArray>
         </PointData> 
      </Piece>
   </UnstructuredGrid> 
</VTKFile>
