<?xml version="1.0"?>
<VTKFile type="UnstructuredGrid" version="0.1" byte_order="LittleEndian">
   <UnstructuredGrid>
      <Piece NumberOfPoints="25" NumberOfCells="0" > 
         <Points> 
            <DataArray type="Float64" Name="Position" NumberOfComponents="3" format="ascii"> 
               0  0  15  
               0.75  0  15  
               1.5  0  15  
               2.25  0  15  
               3  0  15  
               0  0.75  15  
               0.75  0.75  15  
               1.5  0.75  15  
               2.25  0.75  15  
               3  0.75  15  
               0  1.5  15  
               0.75  1.5  15  
               1.5  1.5  15  
               2.25  1.5  15  
               3  1.5  15  
               0  2.25  15  
               0.75  2.25  15  
               1.5  2.25  15  
               2.25  2.25  15  
               3  2.25  15  
               0  3  15  
               0.75  3  15  
               1.5  3  15  
               2.25  3  15  
               3  3  15  
            </DataArray>
         </Points> 

         <Cells>
            <DataArray type="Int32" Name="connectivity" NumberOfComponents="1" format="ascii">
               
            </DataArray> 
            <DataArray type="Int32" Name="offsets" NumberOfComponents="1" format="ascii">
               
            </DataArray>
            <DataArray type="UInt8"  Name="types" NumberOfComponents="1" format="ascii">
               
            </DataArray>
         </Cells>
         <PointData Scalars="Rank " Vectors="Displacement Velocity Traction ">
            <DataArray type="UInt32" Name="Rank" NumberOfComponents="1" format="ascii">
               0 0 0 0 0 0 0 0 0 0 0 0 0 0 0 0 0 0 0 0 0 0 0 0 0 
            </DataArray>
            <DataArray type="Float64" Name="Displacement" NumberOfComponents="3" format="ascii">
               1.1399e-07 1.44556e-07 -2.15726e-07  1.05892e-07 -1.85116e-08 -1.94384e-07  8.48995e-08 2.06121e-08 -1.75071e-07  6.22711e-08 5.43572e-09 -1.93002e-07  5.44804e-08 -2.38703e-08 -2.1497e-07  -1.52093e-08 1.28617e-07 -1.94389e-07  -1.3566e-08 -2.05772e-08 -1.44883e-07  -7.29512e-09 1.23454e-08 -1.00917e-07  4.92775e-09 4.81917e-09 -1.45068e-07  9.24468e-09 -3.68938e-08 -1.93022e-07  4.28026e-08 8.54374e-08 -1.7508e-07  2.89509e-08 -6.39708e-09 -1.00915e-07  -1.35393e-08 -8.88706e-09 -3.31424e-08  -5.37125e-08 1.60379e-08 -1.01177e-07  -7.36775e-08 -6.37008e-08 -1.75441e-07  9.49567e-09 5.6261e-08 -1.92991e-07  7.78833e-09 9.15891e-09 -1.45075e-07  1.77882e-08 -4.29354e-08 -1.01187e-07  2.5757e-08 1.73345e-08 -1.45082e-07  1.90763e-08 -7.37911e-08 -1.94432e-07  -4.88085e-08 4.37745e-08 -2.1495e-07  -6.24962e-08 1.38084e-08 -1.93035e-07  -1.14154e-07 -5.1415e-08 -1.7547e-07  -1.48264e-07 6.15166e-09 -1.94455e-07  -1.42736e-07 -7.94897e-08 -2.15612e-07  
            </DataArray>
            <DataArray type="Float64" Name="Velocity" NumberOfComponents="3" format="ascii">
               3.78604e-07 4.84918e-07 -6.29637e-07  3.59868e-07 -5.18909e-08 -5.67129e-07  3.06951e-07 3.18798e-08 -5.1104e-07  2.45939e-07 1.89844e-08 -5.59635e-07  2.24343e-07 -8.7252e-08 -6.27698e-07  -4.22552e-08 4.34071e-07 -5.67168e-07  -3.36991e-08 -5.84638e-08 -4.30831e-07  -2.17406e-08 1.35698e-08 -3.20083e-07  4.10817e-09 1.86345e-08 -4.32603e-07  1.41206e-08 -1.25475e-07 -5.59318e-07  1.2226e-07 3.05522e-07 -5.11072e-07  8.38964e-08 -1.91919e-08 -3.20079e-07  -4.55178e-08 -3.55851e-08 -1.56039e-07  -1.64465e-07 5.08374e-08 -3.21385e-07  -2.24042e-07 -1.92788e-07 -5.12611e-07  4.11127e-08 2.16565e-07 -5.59565e-07  3.59028e-08 2.47038e-08 -4.32645e-07  5.6576e-08 -1.25372e-07 -3.2142e-07  7.65297e-08 5.34286e-08 -4.31863e-07  5.79776e-08 -2.05584e-07 -5.67282e-07  -1.96866e-07 1.77497e-07 -6.27578e-07  -2.40267e-07 4.08968e-08 -5.59392e-07  -3.94641e-07 -1.43521e-07 -5.12772e-07  -4.95001e-07 2.21522e-08 -5.67405e-07  -4.77905e-07 -2.17434e-07 -6.29413e-07  
            </DataArray>
            <DataArray type="Float64" Name="Traction" NumberOfComponents="3" format="ascii">
               7.66045e-06 8.01724e-06 -6.80592e-05  -2.12529e-06 8.21311e-06 -6.80592e-05  -5.49863e-07 7.19462e-07 -6.80592e-05  3.75695e-07 4.17724e-06 -6.80592e-05  -6.85809e-06 7.82726e-06 -6.80592e-05  5.32346e-06 -2.7104e-06 -6.80592e-05  -1.02446e-06 -1.55584e-06 -6.80592e-05  -1.08439e-07 -1.74917e-06 -6.80592e-05  1.60657e-06 -6.64807e-07 -6.80592e-05  -9.52633e-06 1.12213e-06 -6.80592e-05  5.86978e-06 -1.87881e-07 -6.80592e-05  -1.38553e-06 -1.94697e-07 -6.80592e-05  -2.55802e-07 -1.17079e-07 -6.80592e-05  3.48694e-06 3.49533e-07 -6.80592e-05  -1.14059e-05 7.54204e-07 -6.80592e-05  6.77578e-06 1.20503e-06 -6.80592e-05  -7.94076e-07 1.80134e-06 -6.80592e-05  4.61992e-07 2.6228e-06 -6.80592e-05  1.45979e-06 1.02495e-06 -6.80592e-05  -8.33324e-06 -6.53598e-07 -6.80592e-05  4.87537e-06 -3.91873e-06 -6.80592e-05  2.16774e-07 -8.01207e-06 -6.80592e-05  6.0951e-07 -6.03791e-06 -6.80592e-05  4.02642e-07 -2.60642e-06 -6.80592e-05  -3.64915e-06 -3.85654e-06 -6.80592e-05  
            </DataArray>
         </PointData> 
      </Piece>
   </UnstructuredGrid> 
</VTKFile>
