<?xml version="1.0"?>
<VTKFile type="UnstructuredGrid" version="0.1" byte_order="LittleEndian">
   <UnstructuredGrid>
      <Piece NumberOfPoints="25" NumberOfCells="0" > 
         <Points> 
            <DataArray type="Float64" Name="Position" NumberOfComponents="3" format="ascii"> 
               0  0  20  
               0.75  0  20  
               1.5  0  20  
               2.25  0  20  
               3  0  20  
               0  0.75  20  
               0.75  0.75  20  
               1.5  0.75  20  
               2.25  0.75  20  
               3  0.75  20  
               0  1.5  20  
               0.75  1.5  20  
               1.5  1.5  20  
               2.25  1.5  20  
               3  1.5  20  
               0  2.25  20  
               0.75  2.25  20  
               1.5  2.25  20  
               2.25  2.25  20  
               3  2.25  20  
               0  3  20  
               0.75  3  20  
               1.5  3  20  
               2.25  3  20  
               3  3  20  
            </DataArray>
         </Points> 

         <Cells>
            <DataArray type="Int32" Name="connectivity" NumberOfComponents="1" format="ascii">
               
            </DataArray> 
            <DataArray type="Int32" Name="offsets" NumberOfComponents="1" format="ascii">
               
            </DataArray>
            <DataArray type="UInt8"  Name="types" NumberOfComponents="1" format="ascii">
               
            </DataArray>
         </Cells>
         <PointData Scalars="Rank " Vectors="Displacement Velocity Traction ">
            <DataArray type="UInt32" Name="Rank" NumberOfComponents="1" format="ascii">
               0 0 0 0 0 0 0 0 0 0 0 0 0 0 0 0 0 0 0 0 0 0 0 0 0 
            </DataArray>
            <DataArray type="Float64" Name="Displacement" NumberOfComponents="3" format="ascii">
               0.000662291 0.000666781 -0.00306999  3.73106e-05 0.00112357 -0.00307229  -0.000363242 0.00132663 -0.00296851  -0.000349139 0.000965353 -0.00309232  -0.000735368 0.00122624 -0.00309763  0.00110609 3.96946e-05 -0.00306158  0.000346368 0.00035937 -0.00283372  -0.000127591 0.000565541 -0.00264652  -0.000377565 0.000383091 -0.00294624  -0.000944772 0.000646092 -0.00303008  0.00130753 -0.000355228 -0.00295649  0.000550855 -0.000121557 -0.00264626  -1.41086e-05 -6.68769e-06 -0.00228336  -0.000544222 8.76287e-05 -0.0026608  -0.00129277 0.000350536 -0.00296402  0.000945987 -0.00032787 -0.00308202  0.00036917 -0.000364821 -0.00294735  7.95284e-05 -0.000531081 -0.00266094  -0.000350463 -0.000336384 -0.00286126  -0.00110409 -7.74659e-05 -0.00307203  0.00120491 -0.000709041 -0.00307202  0.000627557 -0.000924458 -0.00301999  0.000342497 -0.00127411 -0.00295266  -8.1187e-05 -0.00108504 -0.00306033  -0.000701423 -0.000694754 -0.00305966  
            </DataArray>
            <DataArray type="Float64" Name="Velocity" NumberOfComponents="3" format="ascii">
               0.000656712 0.000644851 -0.00301826  5.81611e-05 0.00107434 -0.00300607  -0.000300233 0.00127644 -0.00291057  -0.000299686 0.000932205 -0.00303112  -0.000687969 0.0011334 -0.00303457  0.00107368 4.61513e-05 -0.00300302  0.000337566 0.000336156 -0.00277208  -9.71304e-05 0.000525843 -0.0025855  -0.000334651 0.000356013 -0.00287927  -0.00089225 0.000580803 -0.00297388  0.00127118 -0.000307573 -0.00290232  0.000523848 -0.000104148 -0.00258338  1.30025e-06 -3.29502e-06 -0.00222521  -0.000495054 7.91965e-05 -0.00260244  -0.00123416 0.00031314 -0.00290781  0.000921378 -0.000294053 -0.00302013  0.00035198 -0.000334977 -0.00287659  8.21153e-05 -0.00049337 -0.00260099  -0.000315941 -0.000312942 -0.00280252  -0.00104817 -7.63778e-05 -0.00300861  0.00111957 -0.000673998 -0.00301198  0.000571944 -0.000884862 -0.00296443  0.000314839 -0.00122731 -0.00289912  -6.78441e-05 -0.00103922 -0.0030026  -0.000661143 -0.000669049 -0.00300476  
            </DataArray>
            <DataArray type="Float64" Name="Traction" NumberOfComponents="3" format="ascii">
               -0.00395047 -0.00400163 -0.0362274  -0.000958902 -0.00767947 -0.0362274  0.00250709 -0.00893895 -0.0362274  0.00190945 -0.00575124 -0.0362274  0.00353185 -0.0067522 -0.0362274  -0.00755658 -0.000950202 -0.0362274  -0.0030782 -0.00312357 -0.0362274  0.00268319 -0.00489913 -0.0362274  0.00301422 -0.0031922 -0.0362274  0.00512208 -0.003471 -0.0362274  -0.00882074 0.00256294 -0.0362274  -0.00486231 0.00274373 -0.0362274  0.00207553 0.00213814 -0.0362274  0.00467181 0.000567051 -0.0362274  0.00850176 -0.000620438 -0.0362274  -0.00564004 0.00180361 -0.0362274  -0.00317458 0.00297466 -0.0362274  0.00049456 0.00464082 -0.0362274  0.00297164 0.00295112 -0.0362274  0.00727429 0.00116487 -0.0362274  -0.00660991 0.00331231 -0.0362274  -0.00342961 0.00497695 -0.0362274  -0.000707232 0.00838054 -0.0362274  0.00111296 0.00716705 -0.0362274  0.00404445 0.00401928 -0.0362274  
            </DataArray>
         </PointData> 
      </Piece>
   </UnstructuredGrid> 
</VTKFile>
