<?xml version="1.0"?>
<VTKFile type="UnstructuredGrid" version="0.1" byte_order="LittleEndian">
   <UnstructuredGrid>
      <Piece NumberOfPoints="25" NumberOfCells="0" > 
         <Points> 
            <DataArray type="Float64" Name="Position" NumberOfComponents="3" format="ascii"> 
               0  0  20  
               0.75  0  20  
               1.5  0  20  
               2.25  0  20  
               3  0  20  
               0  0.75  20  
               0.75  0.75  20  
               1.5  0.75  20  
               2.25  0.75  20  
               3  0.75  20  
               0  1.5  20  
               0.75  1.5  20  
               1.5  1.5  20  
               2.25  1.5  20  
               3  1.5  20  
               0  2.25  20  
               0.75  2.25  20  
               1.5  2.25  20  
               2.25  2.25  20  
               3  2.25  20  
               0  3  20  
               0.75  3  20  
               1.5  3  20  
               2.25  3  20  
               3  3  20  
            </DataArray>
         </Points> 

         <Cells>
            <DataArray type="Int32" Name="connectivity" NumberOfComponents="1" format="ascii">
               
            </DataArray> 
            <DataArray type="Int32" Name="offsets" NumberOfComponents="1" format="ascii">
               
            </DataArray>
            <DataArray type="UInt8"  Name="types" NumberOfComponents="1" format="ascii">
               
            </DataArray>
         </Cells>
         <PointData Scalars="Rank " Vectors="Displacement Velocity Traction ">
            <DataArray type="UInt32" Name="Rank" NumberOfComponents="1" format="ascii">
               0 0 0 0 0 0 0 0 0 0 0 0 0 0 0 0 0 0 0 0 0 0 0 0 0 
            </DataArray>
            <DataArray type="Float64" Name="Displacement" NumberOfComponents="3" format="ascii">
               2.52213e-07 2.51332e-07 -9.84587e-07  -1.09178e-08 4.61138e-07 -9.02058e-07  -1.12193e-07 5.81715e-07 -8.16755e-07  -1.00777e-07 4.01126e-07 -8.83818e-07  -3.16604e-07 4.23344e-07 -9.87108e-07  4.62132e-07 -1.05918e-08 -9.02232e-07  1.16198e-07 1.16572e-07 -7.06041e-07  -2.46583e-08 2.00591e-07 -5.57596e-07  -1.00308e-07 1.00489e-07 -7.15198e-07  -3.96128e-07 1.70855e-07 -8.79715e-07  5.8071e-07 -1.11617e-07 -8.16652e-07  2.00539e-07 -2.36481e-08 -5.57594e-07  1.54644e-08 1.52273e-08 -3.36059e-07  -1.77463e-07 2.47318e-08 -5.60599e-07  -5.64887e-07 1.16253e-07 -8.18709e-07  3.99697e-07 -1.00764e-07 -8.83445e-07  1.00179e-07 -1.0077e-07 -7.15326e-07  2.5608e-08 -1.77932e-07 -5.60533e-07  -1.08433e-07 -1.08623e-07 -7.08887e-07  -4.54461e-07 1.6647e-09 -9.01658e-07  4.23249e-07 -3.17239e-07 -9.86705e-07  1.70839e-07 -3.96533e-07 -8.8004e-07  1.17867e-07 -5.66563e-07 -8.1922e-07  1.46899e-09 -4.58519e-07 -9.0213e-07  -2.5575e-07 -2.58175e-07 -9.85467e-07  
            </DataArray>
            <DataArray type="Float64" Name="Velocity" NumberOfComponents="3" format="ascii">
               4.1078e-07 4.09333e-07 -1.69892e-06  -3.44047e-08 7.68678e-07 -1.59773e-06  -2.84962e-07 9.18034e-07 -1.46136e-06  -2.39793e-07 6.31925e-07 -1.55192e-06  -5.41509e-07 8.01285e-07 -1.71286e-06  7.70694e-07 -3.35205e-08 -1.59833e-06  2.29493e-07 2.30577e-07 -1.31489e-06  -5.914e-08 3.78885e-07 -1.13322e-06  -1.9999e-07 2.08697e-07 -1.34829e-06  -6.18252e-07 3.99227e-07 -1.53367e-06  9.14683e-07 -2.82968e-07 -1.46083e-06  3.7859e-07 -5.56923e-08 -1.13317e-06  2.48774e-08 2.41893e-08 -8.594e-07  -3.31288e-07 5.7648e-08 -1.14098e-06  -8.78751e-07 2.87493e-07 -1.46322e-06  6.27068e-07 -2.3979e-07 -1.55042e-06  2.07576e-07 -2.01465e-07 -1.34868e-06  6.03862e-08 -3.33046e-07 -1.1405e-06  -2.10458e-07 -2.1175e-07 -1.32341e-06  -7.47879e-07 1.60055e-08 -1.59509e-06  8.00131e-07 -5.4327e-07 -1.71148e-06  3.99308e-07 -6.19716e-07 -1.5349e-06  2.92272e-07 -8.84341e-07 -1.46484e-06  1.59855e-08 -7.60444e-07 -1.59681e-06  -4.22368e-07 -4.29165e-07 -1.70256e-06  
            </DataArray>
            <DataArray type="Float64" Name="Traction" NumberOfComponents="3" format="ascii">
               -2.04525e-06 -2.06868e-06 -1.71519e-05  -5.838e-07 -3.61934e-06 -1.71519e-05  6.51944e-07 -4.60988e-06 -1.71519e-05  7.8357e-07 -3.08507e-06 -1.71519e-05  2.18811e-06 -2.85998e-06 -1.71519e-05  -3.63084e-06 -5.99407e-07 -1.71519e-05  -1.46169e-06 -1.44945e-06 -1.71519e-05  9.24118e-07 -2.2817e-06 -1.71519e-05  1.34081e-06 -1.33838e-06 -1.71519e-05  3.03184e-06 -1.20559e-06 -1.71519e-05  -4.66964e-06 6.66042e-07 -1.71519e-05  -2.33164e-06 9.17604e-07 -1.71519e-05  9.83852e-07 9.8312e-07 -1.71519e-05  2.26323e-06 4.69522e-07 -1.71519e-05  4.64628e-06 -7.65317e-08 -1.71519e-05  -3.09689e-06 8.09928e-07 -1.71519e-05  -1.35239e-06 1.32687e-06 -1.71519e-05  4.6453e-07 2.24069e-06 -1.71519e-05  1.39291e-06 1.39907e-06 -1.71519e-05  3.56719e-06 5.18117e-07 -1.71519e-05  -2.78547e-06 2.22737e-06 -1.71519e-05  -1.13134e-06 3.01083e-06 -1.71519e-05  3.76763e-08 4.60539e-06 -1.71519e-05  6.89848e-07 3.60341e-06 -1.71519e-05  2.10024e-06 1.96516e-06 -1.71519e-05  
            </DataArray>
         </PointData> 
      </Piece>
   </UnstructuredGrid> 
</VTKFile>
