<?xml version="1.0"?>
<VTKFile type="UnstructuredGrid" version="0.1" byte_order="LittleEndian">
   <UnstructuredGrid>
      <Piece NumberOfPoints="25" NumberOfCells="0" > 
         <Points> 
            <DataArray type="Float64" Name="Position" NumberOfComponents="3" format="ascii"> 
               0  0  15  
               0.75  0  15  
               1.5  0  15  
               2.25  0  15  
               3  0  15  
               0  0.75  15  
               0.75  0.75  15  
               1.5  0.75  15  
               2.25  0.75  15  
               3  0.75  15  
               0  1.5  15  
               0.75  1.5  15  
               1.5  1.5  15  
               2.25  1.5  15  
               3  1.5  15  
               0  2.25  15  
               0.75  2.25  15  
               1.5  2.25  15  
               2.25  2.25  15  
               3  2.25  15  
               0  3  15  
               0.75  3  15  
               1.5  3  15  
               2.25  3  15  
               3  3  15  
            </DataArray>
         </Points> 

         <Cells>
            <DataArray type="Int32" Name="connectivity" NumberOfComponents="1" format="ascii">
               
            </DataArray> 
            <DataArray type="Int32" Name="offsets" NumberOfComponents="1" format="ascii">
               
            </DataArray>
            <DataArray type="UInt8"  Name="types" NumberOfComponents="1" format="ascii">
               
            </DataArray>
         </Cells>
         <PointData Scalars="Rank " Vectors="Displacement Velocity Traction ">
            <DataArray type="UInt32" Name="Rank" NumberOfComponents="1" format="ascii">
               0 0 0 0 0 0 0 0 0 0 0 0 0 0 0 0 0 0 0 0 0 0 0 0 0 
            </DataArray>
            <DataArray type="Float64" Name="Displacement" NumberOfComponents="3" format="ascii">
               0.000205762 0.000118507 -6.66671e-06  0.000201511 2.87426e-05 -5.26755e-06  0.00018088 2.28442e-05 -4.10765e-06  0.000157114 1.20671e-05 -4.80177e-06  0.000149979 -3.70576e-05 -6.46909e-06  7.52325e-05 0.000116291 -5.47086e-06  7.74472e-05 3.08669e-05 -2.95165e-06  7.75609e-05 2.2599e-05 -5.4287e-07  8.01368e-05 7.56398e-06 -2.2742e-06  8.53531e-05 -4.44564e-05 -5.3278e-06  5.4257e-05 0.000100993 -4.15103e-06  5.61321e-05 2.4893e-05 -4.81558e-07  4.32425e-05 1.93028e-06 2.22602e-06  3.43092e-05 -9.41468e-06 -6.36981e-07  3.86071e-05 -6.39251e-05 -4.72545e-06  2.75093e-05 8.11809e-05 -4.67776e-06  2.96903e-05 1.58186e-05 -2.20436e-06  2.87518e-05 -1.66351e-05 -5.74284e-07  2.99996e-05 -2.23428e-05 -2.81966e-06  3.16396e-05 -7.35667e-05 -5.8599e-06  -1.39378e-05 7.47779e-05 -6.30493e-06  -1.69163e-05 1.18774e-05 -5.28789e-06  -2.47093e-05 -2.3336e-05 -4.46571e-06  -2.29522e-05 -2.84702e-05 -5.57784e-06  -1.77008e-05 -7.13344e-05 -7.40416e-06  
            </DataArray>
            <DataArray type="Float64" Name="Velocity" NumberOfComponents="3" format="ascii">
               0.000148517 0.000117588 -2.73552e-05  0.000142997 3.01788e-05 -2.33663e-05  0.000121811 1.24622e-05 -2.01008e-05  9.73236e-05 -3.25519e-06 -2.18296e-05  8.84911e-05 -5.85964e-05 -2.65277e-05  4.7123e-05 0.000113028 -2.39308e-05  4.82274e-05 3.07421e-05 -1.57683e-05  4.13211e-05 1.62506e-05 -1.06007e-05  3.64006e-05 -4.74015e-06 -1.55356e-05  3.95438e-05 -6.62204e-05 -2.16426e-05  1.82645e-05 9.32781e-05 -2.06903e-05  2.43548e-05 1.92671e-05 -1.05947e-05  1.51977e-05 2.12165e-07 -3.159e-06  9.07159e-06 -2.18292e-05 -1.0782e-05  1.71809e-05 -8.75184e-05 -2.02821e-05  -2.03288e-06 7.00041e-05 -2.21566e-05  3.42035e-07 7.06314e-06 -1.53791e-05  -6.57008e-06 -1.43451e-05 -1.06569e-05  -1.27232e-05 -3.81779e-05 -1.57816e-05  -1.07169e-05 -0.00010522 -2.32888e-05  -3.9702e-05 6.19242e-05 -2.72224e-05  -4.50783e-05 5.02024e-06 -2.18508e-05  -5.88247e-05 -1.40395e-05 -2.04249e-05  -6.81385e-05 -4.20834e-05 -2.35859e-05  -6.9115e-05 -0.000109278 -2.68987e-05  
            </DataArray>
            <DataArray type="Float64" Name="Traction" NumberOfComponents="3" format="ascii">
               0.00269268 0.00248085 -0.00279733  -0.000429298 0.00268177 -0.00279733  -0.000246214 0.00286143 -0.00279733  -0.000113207 0.00312661 -0.00279733  -0.00341457 0.00293224 -0.00279733  0.00336508 -0.000487795 -0.00279733  0.000285656 0.00053321 -0.00279733  9.78364e-05 0.00112955 -0.00279733  0.000139558 0.000527743 -0.00279733  -0.00262301 0.000196986 -0.00279733  0.00333544 -0.000417738 -0.00279733  0.000441354 9.91894e-05 -0.00279733  1.39167e-05 3.49939e-05 -0.00279733  -0.000295293 -0.000156061 -0.00279733  -0.00314946 0.000106109 -0.00279733  0.00330653 -0.000227144 -0.00279733  1.69755e-05 -0.000260194 -0.00279733  -0.000173487 -0.00100788 -0.00279733  -0.00034003 -0.000962631 -0.00279733  -0.0013688 -0.00086639 -0.00279733  0.00327321 -0.00385925 -0.00279733  -9.46604e-05 -0.0027913 -0.00279733  0.000251692 -0.00311236 -0.00279733  -0.000401212 -0.00192977 -0.00279733  0.000465566 0.000108029 -0.00279733  
            </DataArray>
         </PointData> 
      </Piece>
   </UnstructuredGrid> 
</VTKFile>
