<?xml version="1.0"?>
<VTKFile type="UnstructuredGrid" version="0.1" byte_order="LittleEndian">
   <UnstructuredGrid>
      <Piece NumberOfPoints="25" NumberOfCells="0" > 
         <Points> 
            <DataArray type="Float64" Name="Position" NumberOfComponents="3" format="ascii"> 
               0  0  20  
               0.75  0  20  
               1.5  0  20  
               2.25  0  20  
               3  0  20  
               0  0.75  20  
               0.75  0.75  20  
               1.5  0.75  20  
               2.25  0.75  20  
               3  0.75  20  
               0  1.5  20  
               0.75  1.5  20  
               1.5  1.5  20  
               2.25  1.5  20  
               3  1.5  20  
               0  2.25  20  
               0.75  2.25  20  
               1.5  2.25  20  
               2.25  2.25  20  
               3  2.25  20  
               0  3  20  
               0.75  3  20  
               1.5  3  20  
               2.25  3  20  
               3  3  20  
            </DataArray>
         </Points> 

         <Cells>
            <DataArray type="Int32" Name="connectivity" NumberOfComponents="1" format="ascii">
               
            </DataArray> 
            <DataArray type="Int32" Name="offsets" NumberOfComponents="1" format="ascii">
               
            </DataArray>
            <DataArray type="UInt8"  Name="types" NumberOfComponents="1" format="ascii">
               
            </DataArray>
         </Cells>
         <PointData Scalars="Rank " Vectors="Displacement Velocity Traction ">
            <DataArray type="UInt32" Name="Rank" NumberOfComponents="1" format="ascii">
               0 0 0 0 0 0 0 0 0 0 0 0 0 0 0 0 0 0 0 0 0 0 0 0 0 
            </DataArray>
            <DataArray type="Float64" Name="Displacement" NumberOfComponents="3" format="ascii">
               2.05467e-07 2.04768e-07 -7.91954e-07  -7.13173e-09 3.73616e-07 -7.21788e-07  -8.10687e-08 4.76468e-07 -6.52251e-07  -7.44555e-08 3.28817e-07 -7.08639e-07  -2.54986e-07 3.33254e-07 -7.92989e-07  3.7437e-07 -6.89965e-09 -7.21899e-07  9.0521e-08 9.07806e-08 -5.58872e-07  -1.81827e-08 1.5791e-07 -4.32102e-07  -7.80817e-08 7.74561e-08 -5.64583e-07  -3.25257e-07 1.26872e-07 -7.06348e-07  4.75808e-07 -8.06962e-08 -6.52199e-07  1.57885e-07 -1.75285e-08 -4.32105e-07  1.24926e-08 1.23291e-08 -2.42932e-07  -1.40177e-07 1.83749e-08 -4.34262e-07  -4.63948e-07 8.47147e-08 -6.53935e-07  3.27889e-07 -7.44441e-08 -7.08415e-07  7.72603e-08 -7.83888e-08 -5.64669e-07  1.89638e-08 -1.40469e-07 -4.3424e-07  -8.48449e-08 -8.49143e-08 -5.6082e-07  -3.69131e-07 -2.59313e-11 -7.2164e-07  3.33261e-07 -2.55431e-07 -7.92729e-07  1.2685e-07 -3.25514e-07 -7.06549e-07  8.58237e-08 -4.65046e-07 -6.54277e-07  -2.09211e-10 -3.71867e-07 -7.21937e-07  -2.07766e-07 -2.09459e-07 -7.92436e-07  
            </DataArray>
            <DataArray type="Float64" Name="Velocity" NumberOfComponents="3" format="ascii">
               3.64083e-07 3.62517e-07 -1.49316e-06  -2.80611e-08 6.81738e-07 -1.38912e-06  -2.2969e-07 8.26587e-07 -1.2643e-06  -1.95677e-07 5.66811e-07 -1.3509e-06  -4.79525e-07 6.9081e-07 -1.50357e-06  6.83662e-07 -2.73882e-08 -1.38955e-06  1.95678e-07 1.96489e-07 -1.12314e-06  -4.80646e-08 3.28035e-07 -9.45024e-07  -1.68102e-07 1.72656e-07 -1.1467e-06  -5.56623e-07 3.28576e-07 -1.33917e-06  8.24221e-07 -2.28308e-07 -1.26399e-06  3.27866e-07 -4.56219e-08 -9.45002e-07  2.4373e-08 2.38454e-08 -6.81619e-07  -2.86321e-07 4.75721e-08 -9.51224e-07  -7.94542e-07 2.34063e-07 -1.26691e-06  5.63369e-07 -1.95651e-07 -1.34992e-06  1.71887e-07 -1.69188e-07 -1.147e-06  4.95864e-08 -2.8751e-07 -9.50963e-07  -1.80161e-07 -1.80868e-07 -1.12949e-06  -6.66294e-07 1.17604e-08 -1.38759e-06  6.90266e-07 -4.80895e-07 -1.50258e-06  3.28597e-07 -5.57617e-07 -1.33999e-06  2.37645e-07 -7.98511e-07 -1.26808e-06  1.15728e-08 -6.75591e-07 -1.38876e-06  -3.7291e-07 -3.78216e-07 -1.49605e-06  
            </DataArray>
            <DataArray type="Float64" Name="Traction" NumberOfComponents="3" format="ascii">
               0 0 0  0 0 0  0 0 0  0 0 0  0 0 0  0 0 0  0 0 0  0 0 0  0 0 0  0 0 0  0 0 0  0 0 0  0 0 0  0 0 0  0 0 0  0 0 0  0 0 0  0 0 0  0 0 0  0 0 0  0 0 0  0 0 0  0 0 0  0 0 0  0 0 0  
            </DataArray>
         </PointData> 
      </Piece>
   </UnstructuredGrid> 
</VTKFile>
