<?xml version="1.0"?>
<VTKFile type="UnstructuredGrid" version="0.1" byte_order="LittleEndian">
   <UnstructuredGrid>
      <Piece NumberOfPoints="25" NumberOfCells="0" > 
         <Points> 
            <DataArray type="Float64" Name="Position" NumberOfComponents="3" format="ascii"> 
               0  0  20  
               0.75  0  20  
               1.5  0  20  
               2.25  0  20  
               3  0  20  
               0  0.75  20  
               0.75  0.75  20  
               1.5  0.75  20  
               2.25  0.75  20  
               3  0.75  20  
               0  1.5  20  
               0.75  1.5  20  
               1.5  1.5  20  
               2.25  1.5  20  
               3  1.5  20  
               0  2.25  20  
               0.75  2.25  20  
               1.5  2.25  20  
               2.25  2.25  20  
               3  2.25  20  
               0  3  20  
               0.75  3  20  
               1.5  3  20  
               2.25  3  20  
               3  3  20  
            </DataArray>
         </Points> 

         <Cells>
            <DataArray type="Int32" Name="connectivity" NumberOfComponents="1" format="ascii">
               
            </DataArray> 
            <DataArray type="Int32" Name="offsets" NumberOfComponents="1" format="ascii">
               
            </DataArray>
            <DataArray type="UInt8"  Name="types" NumberOfComponents="1" format="ascii">
               
            </DataArray>
         </Cells>
         <PointData Scalars="Rank " Vectors="Displacement Velocity Traction ">
            <DataArray type="UInt32" Name="Rank" NumberOfComponents="1" format="ascii">
               0 0 0 0 0 0 0 0 0 0 0 0 0 0 0 0 0 0 0 0 0 0 0 0 0 
            </DataArray>
            <DataArray type="Float64" Name="Displacement" NumberOfComponents="3" format="ascii">
               0.00039062 0.000399058 -0.00180176  1.33526e-05 0.000677055 -0.00180153  -0.000231338 0.000798725 -0.00173469  -0.000216564 0.000578398 -0.0018095  -0.00044582 0.000744735 -0.0018179  0.000662605 2.01551e-05 -0.00179385  0.000205417 0.000216946 -0.00165298  -8.25813e-05 0.000342924 -0.00153759  -0.000231164 0.000230474 -0.00171856  -0.000571727 0.000393971 -0.00177139  0.000784714 -0.000221586 -0.00172784  0.00033136 -7.46143e-05 -0.00153817  -1.16691e-05 -3.53872e-06 -0.00131735  -0.000331006 5.38215e-05 -0.00154499  -0.000779246 0.000216204 -0.00173029  0.000566285 -0.000200862 -0.00180502  0.000220351 -0.000220201 -0.00172042  4.58106e-05 -0.000320531 -0.0015456  -0.000213268 -0.000202555 -0.00166778  -0.000665013 -4.28638e-05 -0.00179882  0.000732097 -0.000429018 -0.00180508  0.000381922 -0.000557339 -0.00176643  0.000208802 -0.000766163 -0.00172408  -4.9382e-05 -0.000652521 -0.00179145  -0.000422805 -0.000414117 -0.0017945  
            </DataArray>
            <DataArray type="Float64" Name="Velocity" NumberOfComponents="3" format="ascii">
               0.000368906 0.000366357 -0.00174021  3.01812e-05 0.000612516 -0.00175284  -0.000189893 0.00072337 -0.00170441  -0.00019134 0.000531582 -0.00177089  -0.000402415 0.000670637 -0.00176327  0.000603356 2.62596e-05 -0.00174567  0.000190778 0.000196794 -0.0016356  -6.86607e-05 0.000308317 -0.00154074  -0.000210247 0.000213552 -0.00170161  -0.000518376 0.000355212 -0.00173798  0.000711356 -0.000189216 -0.00169472  0.000299849 -6.88565e-05 -0.00153982  -8.78671e-06 -7.07772e-06 -0.00134799  -0.00030143 4.66971e-05 -0.00154944  -0.000709422 0.000186903 -0.00170563  0.00051723 -0.000178098 -0.00176133  0.000204587 -0.000204171 -0.00170147  4.37617e-05 -0.00029423 -0.00154916  -0.000195329 -0.00018692 -0.00165251  -0.000608007 -5.04806e-05 -0.00175788  0.000654303 -0.000383403 -0.00174109  0.000341737 -0.000505456 -0.0017294  0.000183253 -0.00069725 -0.00169636  -4.89084e-05 -0.000594455 -0.00174901  -0.000388151 -0.000387738 -0.00174002  
            </DataArray>
            <DataArray type="Float64" Name="Traction" NumberOfComponents="3" format="ascii">
               -0.00248817 -0.00250512 -0.0202866  -0.000690842 -0.00467576 -0.0202866  0.00144513 -0.00542124 -0.0202866  0.00110445 -0.00350354 -0.0202866  0.00209779 -0.00414131 -0.0202866  -0.00461846 -0.000655405 -0.0202866  -0.00192123 -0.00192085 -0.0202866  0.00159118 -0.00300345 -0.0202866  0.0018037 -0.00197323 -0.0202866  0.00307517 -0.0021269 -0.0202866  -0.00537757 0.00151716 -0.0202866  -0.00301249 0.0016572 -0.0202866  0.00120376 0.00127029 -0.0202866  0.00279294 0.000318946 -0.0202866  0.0050879 -0.000349697 -0.0202866  -0.00347458 0.00108686 -0.0202866  -0.00199425 0.00181385 -0.0202866  0.000248131 0.00280786 -0.0202866  0.00176875 0.00178648 -0.0202866  0.00435844 0.00075161 -0.0202866  -0.00410164 0.00201998 -0.0202866  -0.00213722 0.00302637 -0.0202866  -0.000432578 0.00505166 -0.0202866  0.000703799 0.0043281 -0.0202866  0.00247574 0.00246948 -0.0202866  
            </DataArray>
         </PointData> 
      </Piece>
   </UnstructuredGrid> 
</VTKFile>
