<?xml version="1.0"?>
<VTKFile type="UnstructuredGrid" version="0.1" byte_order="LittleEndian">
   <UnstructuredGrid>
      <Piece NumberOfPoints="25" NumberOfCells="0" > 
         <Points> 
            <DataArray type="Float64" Name="Position" NumberOfComponents="3" format="ascii"> 
               0  0  20  
               0.75  0  20  
               1.5  0  20  
               2.25  0  20  
               3  0  20  
               0  0.75  20  
               0.75  0.75  20  
               1.5  0.75  20  
               2.25  0.75  20  
               3  0.75  20  
               0  1.5  20  
               0.75  1.5  20  
               1.5  1.5  20  
               2.25  1.5  20  
               3  1.5  20  
               0  2.25  20  
               0.75  2.25  20  
               1.5  2.25  20  
               2.25  2.25  20  
               3  2.25  20  
               0  3  20  
               0.75  3  20  
               1.5  3  20  
               2.25  3  20  
               3  3  20  
            </DataArray>
         </Points> 

         <Cells>
            <DataArray type="Int32" Name="connectivity" NumberOfComponents="1" format="ascii">
               
            </DataArray> 
            <DataArray type="Int32" Name="offsets" NumberOfComponents="1" format="ascii">
               
            </DataArray>
            <DataArray type="UInt8"  Name="types" NumberOfComponents="1" format="ascii">
               
            </DataArray>
         </Cells>
         <PointData Scalars="Rank " Vectors="Displacement Velocity Traction ">
            <DataArray type="UInt32" Name="Rank" NumberOfComponents="1" format="ascii">
               0 0 0 0 0 0 0 0 0 0 0 0 0 0 0 0 0 0 0 0 0 0 0 0 0 
            </DataArray>
            <DataArray type="Float64" Name="Displacement" NumberOfComponents="3" format="ascii">
               9.48183e-05 9.77151e-05 -0.000398294  -1.53627e-06 0.000169411 -0.000385196  -5.79379e-05 0.000200597 -0.000361556  -4.83865e-05 0.00014132 -0.000381333  -0.000109569 0.000178289 -0.000394031  0.00016843 1.42413e-06 -0.000385799  5.15881e-05 5.24356e-05 -0.000334984  -1.65575e-05 8.33149e-05 -0.000298272  -4.88425e-05 5.12986e-05 -0.000347009  -0.000137809 8.98991e-05 -0.000371727  0.000201434 -5.53531e-05 -0.000363355  8.37701e-05 -1.43242e-05 -0.000298803  1.69098e-06 2.94817e-06 -0.000236028  -7.4295e-05 1.38754e-05 -0.000299872  -0.000190473 5.5982e-05 -0.000358231  0.000143673 -4.89939e-05 -0.000383592  5.25097e-05 -4.78249e-05 -0.000347366  1.35163e-05 -7.37714e-05 -0.000299967  -4.61014e-05 -4.634e-05 -0.00033744  -0.000160316 -2.61645e-06 -0.000380892  0.000180449 -0.000112055 -0.000398367  9.17234e-05 -0.000138211 -0.000373091  5.59269e-05 -0.00019085 -0.000359494  -4.28542e-06 -0.000161559 -0.000382132  -9.8002e-05 -9.65039e-05 -0.000391603  
            </DataArray>
            <DataArray type="Float64" Name="Velocity" NumberOfComponents="3" format="ascii">
               9.97611e-05 0.000105334 -0.000457951  -1.71596e-08 0.000178471 -0.000457047  -6.57326e-05 0.000209731 -0.000437707  -5.90524e-05 0.000150561 -0.000457764  -0.000116665 0.000198554 -0.000460224  0.000172919 5.15013e-06 -0.000454726  5.28137e-05 5.78765e-05 -0.00041662  -2.46711e-05 9.17579e-05 -0.000385668  -6.29617e-05 6.12545e-05 -0.000433464  -0.000151074 0.000106112 -0.000446731  0.000204669 -6.02771e-05 -0.000436307  8.69828e-05 -1.99104e-05 -0.000386177  -5.1419e-06 -6.00979e-07 -0.00032791  -8.84068e-05 1.45716e-05 -0.000387157  -0.000203838 5.76762e-05 -0.000434725  0.000147167 -5.35774e-05 -0.000457693  5.73885e-05 -5.84464e-05 -0.000434544  1.02563e-05 -8.4584e-05 -0.000387621  -5.72396e-05 -5.34558e-05 -0.000420009  -0.000173586 -1.0924e-05 -0.000454232  0.000195946 -0.000111944 -0.000459038  0.000102983 -0.000146428 -0.000446329  5.42544e-05 -0.00020006 -0.000434  -1.52696e-05 -0.000170577 -0.000452738  -0.000112152 -0.00010724 -0.000454222  
            </DataArray>
            <DataArray type="Float64" Name="Traction" NumberOfComponents="3" format="ascii">
               -0.000754695 -0.000724032 -0.0053146  -0.000260335 -0.00123481 -0.0053146  0.000296745 -0.00145 -0.0053146  0.000249255 -0.000959776 -0.0053146  0.000575021 -0.00106042 -0.0053146  -0.00126168 -0.000227225 -0.0053146  -0.000536057 -0.000508979 -0.0053146  0.00038352 -0.000797422 -0.0053146  0.000455878 -0.00052107 -0.0053146  0.000833308 -0.000509451 -0.0053146  -0.00148762 0.000323221 -0.0053146  -0.000828817 0.000397998 -0.0053146  0.000299727 0.000316304 -0.0053146  0.000710102 8.30815e-05 -0.0053146  0.00132656 -5.91131e-05 -0.0053146  -0.000995681 0.000299564 -0.0053146  -0.00054402 0.000486644 -0.0053146  7.14268e-05 0.000738372 -0.0053146  0.000448829 0.00047532 -0.0053146  0.00112064 0.00022599 -0.0053146  -0.00110019 0.000643355 -0.0053146  -0.000534292 0.000880618 -0.0053146  -6.69878e-05 0.00136875 -0.0053146  0.000216179 0.00116216 -0.0053146  0.000675234 0.000693907 -0.0053146  
            </DataArray>
         </PointData> 
      </Piece>
   </UnstructuredGrid> 
</VTKFile>
