<?xml version="1.0"?>
<VTKFile type="UnstructuredGrid" version="0.1" byte_order="LittleEndian">
   <UnstructuredGrid>
      <Piece NumberOfPoints="25" NumberOfCells="0" > 
         <Points> 
            <DataArray type="Float64" Name="Position" NumberOfComponents="3" format="ascii"> 
               0  0  15  
               0.75  0  15  
               1.5  0  15  
               2.25  0  15  
               3  0  15  
               0  0.75  15  
               0.75  0.75  15  
               1.5  0.75  15  
               2.25  0.75  15  
               3  0.75  15  
               0  1.5  15  
               0.75  1.5  15  
               1.5  1.5  15  
               2.25  1.5  15  
               3  1.5  15  
               0  2.25  15  
               0.75  2.25  15  
               1.5  2.25  15  
               2.25  2.25  15  
               3  2.25  15  
               0  3  15  
               0.75  3  15  
               1.5  3  15  
               2.25  3  15  
               3  3  15  
            </DataArray>
         </Points> 

         <Cells>
            <DataArray type="Int32" Name="connectivity" NumberOfComponents="1" format="ascii">
               
            </DataArray> 
            <DataArray type="Int32" Name="offsets" NumberOfComponents="1" format="ascii">
               
            </DataArray>
            <DataArray type="UInt8"  Name="types" NumberOfComponents="1" format="ascii">
               
            </DataArray>
         </Cells>
         <PointData Scalars="Rank " Vectors="Displacement Velocity Traction ">
            <DataArray type="UInt32" Name="Rank" NumberOfComponents="1" format="ascii">
               0 0 0 0 0 0 0 0 0 0 0 0 0 0 0 0 0 0 0 0 0 0 0 0 0 
            </DataArray>
            <DataArray type="Float64" Name="Displacement" NumberOfComponents="3" format="ascii">
               1.5545e-05 6.71217e-06 -4.31984e-06  1.55148e-05 -4.59308e-07 -4.65626e-06  1.38542e-05 -1.45968e-06 -4.75191e-06  1.19332e-05 1.31505e-06 -4.79877e-06  1.15198e-05 1.5602e-06 -4.29982e-06  2.3168e-06 6.28775e-06 -4.63981e-06  2.54432e-06 -2.27558e-07 -4.84149e-06  2.31587e-06 -9.82879e-07 -5.02832e-06  1.73251e-06 1.45628e-06 -5.16036e-06  1.69845e-06 7.99608e-07 -4.55155e-06  3.79089e-06 5.65466e-06 -4.73248e-06  3.07569e-06 1.88826e-07 -5.03297e-06  6.75847e-07 -1.58951e-06 -5.04621e-06  -1.91848e-06 1.63695e-06 -5.06479e-06  -3.06287e-06 -2.93282e-07 -4.67319e-06  3.44451e-06 4.91152e-06 -4.76914e-06  3.1644e-06 4.47868e-07 -5.16169e-06  2.83446e-06 -2.63695e-06 -5.05987e-06  2.98213e-06 1.79807e-06 -4.90247e-06  2.63752e-06 6.95279e-07 -4.61807e-06  -4.1852e-06 4.48501e-06 -4.28947e-06  -4.58428e-06 5.55058e-07 -4.57587e-06  -5.85781e-06 -3.21692e-06 -4.69586e-06  -5.1877e-06 1.14725e-06 -4.63445e-06  -3.90335e-06 1.68857e-06 -4.26236e-06  
            </DataArray>
            <DataArray type="Float64" Name="Velocity" NumberOfComponents="3" format="ascii">
               1.78779e-05 4.05114e-06 6.2484e-07  1.80624e-05 -4.63371e-07 -1.12168e-07  1.67761e-05 1.37e-07 -6.70793e-07  1.50206e-05 2.48934e-06 -4.86224e-07  1.47108e-05 2.55738e-06 6.2229e-07  4.84363e-06 4.21617e-06 -6.81586e-08  4.99078e-06 -1.11154e-07 -1.27194e-06  5.16651e-06 1.99865e-07 -2.0213e-06  5.12738e-06 2.21889e-06 -1.52695e-06  5.37677e-06 1.85161e-06 -3.06989e-07  5.61379e-06 4.52628e-06 -6.37334e-07  4.70196e-06 4.04745e-07 -2.03117e-06  2.68216e-06 -9.89322e-07 -2.87611e-06  8.23383e-07 1.60979e-06 -2.03766e-06  1.71829e-07 6.44939e-07 -5.88508e-07  4.80309e-06 4.32735e-06 -4.50242e-07  4.51116e-06 4.71202e-07 -1.52844e-06  4.47158e-06 -2.31544e-06 -2.04219e-06  5.03644e-06 1.44838e-06 -1.30504e-06  4.90697e-06 1.5459e-06 -8.94031e-08  -7.45565e-07 4.21733e-06 6.33498e-07  -7.54975e-07 2.43792e-07 -3.29375e-07  -8.48378e-07 -3.43082e-06 -6.07849e-07  8.83512e-07 7.26503e-07 -8.49588e-08  2.32311e-06 2.78356e-06 6.59486e-07  
            </DataArray>
            <DataArray type="Float64" Name="Traction" NumberOfComponents="3" format="ascii">
               0.000264669 0.000274045 0.000186683  -0.000117453 0.00015425 0.000186683  -2.35249e-05 6.27357e-05 0.000186683  5.36606e-05 0.000193185 0.000186683  -0.00032487 0.000340912 0.000186683  0.000342807 -9.4562e-05 0.000186683  4.35333e-05 -6.49271e-06 0.000186683  1.85349e-05 7.25828e-05 0.000186683  3.28424e-05 2.65664e-05 0.000186683  -0.000375608 1.66943e-05 0.000186683  0.000363606 -9.81406e-06 0.000186683  0.000100914 1.01801e-05 0.000186683  2.58954e-05 1.18326e-05 0.000186683  2.03833e-05 1.04308e-05 0.000186683  -0.000468515 -6.04822e-06 0.000186683  0.000380119 5.95314e-05 0.000186683  3.90827e-05 2.12615e-05 0.000186683  2.05093e-05 -3.4692e-05 0.000186683  4.16861e-05 -2.72229e-06 0.000186683  -0.000100572 -5.30334e-05 0.000186683  0.000406474 -0.000355215 0.000186683  9.77756e-06 -0.000301485 0.000186683  3.91369e-05 -0.000290387 0.000186683  3.70692e-05 -2.35014e-05 0.000186683  0.000256012 0.000194557 0.000186683  
            </DataArray>
         </PointData> 
      </Piece>
   </UnstructuredGrid> 
</VTKFile>
