<?xml version="1.0"?>
<VTKFile type="UnstructuredGrid" version="0.1" byte_order="LittleEndian">
   <UnstructuredGrid>
      <Piece NumberOfPoints="25" NumberOfCells="0" > 
         <Points> 
            <DataArray type="Float64" Name="Position" NumberOfComponents="3" format="ascii"> 
               0  0  20  
               0.75  0  20  
               1.5  0  20  
               2.25  0  20  
               3  0  20  
               0  0.75  20  
               0.75  0.75  20  
               1.5  0.75  20  
               2.25  0.75  20  
               3  0.75  20  
               0  1.5  20  
               0.75  1.5  20  
               1.5  1.5  20  
               2.25  1.5  20  
               3  1.5  20  
               0  2.25  20  
               0.75  2.25  20  
               1.5  2.25  20  
               2.25  2.25  20  
               3  2.25  20  
               0  3  20  
               0.75  3  20  
               1.5  3  20  
               2.25  3  20  
               3  3  20  
            </DataArray>
         </Points> 

         <Cells>
            <DataArray type="Int32" Name="connectivity" NumberOfComponents="1" format="ascii">
               
            </DataArray> 
            <DataArray type="Int32" Name="offsets" NumberOfComponents="1" format="ascii">
               
            </DataArray>
            <DataArray type="UInt8"  Name="types" NumberOfComponents="1" format="ascii">
               
            </DataArray>
         </Cells>
         <PointData Scalars="Rank " Vectors="Displacement Velocity Traction ">
            <DataArray type="UInt32" Name="Rank" NumberOfComponents="1" format="ascii">
               0 0 0 0 0 0 0 0 0 0 0 0 0 0 0 0 0 0 0 0 0 0 0 0 0 
            </DataArray>
            <DataArray type="Float64" Name="Displacement" NumberOfComponents="3" format="ascii">
               0.000108578 0.000112221 -0.000461888  -1.49973e-06 0.000193997 -0.000448789  -6.69938e-05 0.000229504 -0.000422546  -5.65764e-05 0.000162106 -0.000445074  -0.000125681 0.000205716 -0.000458043  0.00019223 2.14358e-06 -0.000449044  5.88552e-05 6.04121e-05 -0.000393114  -1.99879e-05 9.59709e-05 -0.000352198  -5.75901e-05 5.9784e-05 -0.00040749  -0.000158685 0.000104589 -0.000433961  0.000229606 -6.36735e-05 -0.000424114  9.57441e-05 -1.71144e-05 -0.000352793  9.48978e-07 2.82735e-06 -0.000282046  -8.65552e-05 1.58804e-05 -0.000354004  -0.000218634 6.39266e-05 -0.000418848  0.000163937 -5.63881e-05 -0.000447283  6.04308e-05 -5.5938e-05 -0.000407995  1.49207e-05 -8.54841e-05 -0.000354163  -5.40501e-05 -5.37371e-05 -0.000396046  -0.000184313 -4.17751e-06 -0.000444148  0.000207454 -0.000127449 -0.000462125  0.000105926 -0.000158407 -0.000435239  6.33844e-05 -0.000218448 -0.000419975  -6.43705e-06 -0.000185087 -0.000445142  -0.000113515 -0.000111338 -0.000454752  
            </DataArray>
            <DataArray type="Float64" Name="Velocity" NumberOfComponents="3" format="ascii">
               0.000111151 0.000117024 -0.000516576  5.68992e-07 0.000198383 -0.000517397  -7.31032e-05 0.000233285 -0.000496819  -6.64774e-05 0.000167988 -0.000518931  -0.000130284 0.000221855 -0.000520647  0.00019191 5.87477e-06 -0.000514419  5.86228e-05 6.44133e-05 -0.000474061  -2.78844e-05 0.000102252 -0.000440575  -7.10801e-05 6.88027e-05 -0.000493249  -0.000168811 0.000119071 -0.000506845  0.000227124 -6.7286e-05 -0.000494705  9.66019e-05 -2.28326e-05 -0.000441071  -6.19169e-06 -1.22166e-06 -0.000377173  -9.94762e-05 1.61719e-05 -0.000442267  -0.000227697 6.41478e-05 -0.000494061  0.000163426 -5.97963e-05 -0.000518267  6.40529e-05 -6.58884e-05 -0.000494445  1.13015e-05 -9.49327e-05 -0.000442772  -6.45674e-05 -5.99279e-05 -0.000477966  -0.000194176 -1.29681e-05 -0.000515022  0.000218048 -0.000124061 -0.000517991  0.000114787 -0.00016308 -0.000505937  6.01277e-05 -0.000222884 -0.000492716  -1.76636e-05 -0.000190034 -0.000512771  -0.000125572 -0.000120102 -0.000513441  
            </DataArray>
            <DataArray type="Float64" Name="Traction" NumberOfComponents="3" format="ascii">
               -0.000848457 -0.000818048 -0.00597853  -0.000289528 -0.00140678 -0.00597853  0.00034748 -0.00164648 -0.00597853  0.000285878 -0.00108619 -0.00597853  0.000645268 -0.00121372 -0.00597853  -0.0014332 -0.000253934 -0.00597853  -0.000610103 -0.000580986 -0.00597853  0.000439292 -0.0009081 -0.00597853  0.000518828 -0.000594368 -0.00597853  0.000940401 -0.000589639 -0.00597853  -0.00168468 0.000378551 -0.00597853  -0.000942077 0.000458057 -0.00597853  0.000340344 0.000361239 -0.00597853  0.000807861 9.40345e-05 -0.00597853  0.00150487 -7.10688e-05 -0.00597853  -0.00112442 0.000338455 -0.00597853  -0.000620728 0.000552162 -0.00597853  7.80069e-05 0.000839338 -0.00597853  0.000510532 0.000539965 -0.00597853  0.00127393 0.000254663 -0.00597853  -0.00125631 0.000714389 -0.00597853  -0.000618003 0.000988305 -0.00597853  -8.41007e-05 0.0015487 -0.00597853  0.000242147 0.00131727 -0.00597853  0.000764385 0.000783507 -0.00597853  
            </DataArray>
         </PointData> 
      </Piece>
   </UnstructuredGrid> 
</VTKFile>
