<?xml version="1.0"?>
<VTKFile type="UnstructuredGrid" version="0.1" byte_order="LittleEndian">
   <UnstructuredGrid>
      <Piece NumberOfPoints="25" NumberOfCells="0" > 
         <Points> 
            <DataArray type="Float64" Name="Position" NumberOfComponents="3" format="ascii"> 
               0  0  20  
               0.75  0  20  
               1.5  0  20  
               2.25  0  20  
               3  0  20  
               0  0.75  20  
               0.75  0.75  20  
               1.5  0.75  20  
               2.25  0.75  20  
               3  0.75  20  
               0  1.5  20  
               0.75  1.5  20  
               1.5  1.5  20  
               2.25  1.5  20  
               3  1.5  20  
               0  2.25  20  
               0.75  2.25  20  
               1.5  2.25  20  
               2.25  2.25  20  
               3  2.25  20  
               0  3  20  
               0.75  3  20  
               1.5  3  20  
               2.25  3  20  
               3  3  20  
            </DataArray>
         </Points> 

         <Cells>
            <DataArray type="Int32" Name="connectivity" NumberOfComponents="1" format="ascii">
               
            </DataArray> 
            <DataArray type="Int32" Name="offsets" NumberOfComponents="1" format="ascii">
               
            </DataArray>
            <DataArray type="UInt8"  Name="types" NumberOfComponents="1" format="ascii">
               
            </DataArray>
         </Cells>
         <PointData Scalars="Rank " Vectors="Displacement Velocity Traction ">
            <DataArray type="UInt32" Name="Rank" NumberOfComponents="1" format="ascii">
               0 0 0 0 0 0 0 0 0 0 0 0 0 0 0 0 0 0 0 0 0 0 0 0 0 
            </DataArray>
            <DataArray type="Float64" Name="Displacement" NumberOfComponents="3" format="ascii">
               4.40884e-06 3.48517e-06 -2.17219e-05  -2.82696e-07 9.31948e-06 -1.86586e-05  -1.48716e-06 1.36079e-05 -1.59368e-05  -1.22947e-07 8.5199e-06 -1.75235e-05  -5.66571e-06 7.27659e-06 -2.12207e-05  1.03124e-05 -1.31053e-06 -1.90936e-05  2.5409e-06 1.48531e-06 -1.27415e-05  6.13109e-07 3.59413e-06 -7.92711e-06  9.46322e-08 7.12593e-07 -1.21518e-05  -7.63897e-06 1.93279e-06 -1.78281e-05  1.4767e-05 -2.52557e-06 -1.62695e-05  4.75304e-06 -2.44311e-07 -7.87461e-06  1.63932e-06 8.09521e-07 -1.5222e-06  -2.48299e-06 9.88095e-07 -8.10474e-06  -1.31073e-05 3.52797e-06 -1.65322e-05  9.30399e-06 -1.29873e-06 -1.75952e-05  1.61736e-06 -5.54506e-07 -1.20162e-05  1.77883e-06 -2.77406e-06 -7.9998e-06  -7.13835e-07 -9.83784e-07 -1.26456e-05  -9.60061e-06 1.96555e-06 -1.909e-05  7.41979e-06 -6.8542e-06 -2.14532e-05  2.18956e-06 -8.30591e-06 -1.78951e-05  3.88049e-06 -1.32367e-05 -1.63809e-05  2.34898e-06 -9.50851e-06 -1.89814e-05  -3.36164e-06 -3.73323e-06 -2.21201e-05  
            </DataArray>
            <DataArray type="Float64" Name="Velocity" NumberOfComponents="3" format="ascii">
               1.62223e-05 1.56873e-05 -5.50442e-05  -8.29886e-07 2.84258e-05 -4.97164e-05  -8.6223e-06 3.3774e-05 -4.4668e-05  -6.65489e-06 2.35341e-05 -4.78467e-05  -1.93263e-05 2.71463e-05 -5.35071e-05  2.95677e-05 -1.32721e-06 -5.04761e-05  8.9939e-06 7.87223e-06 -3.80774e-05  -6.3094e-07 1.25735e-05 -3.02069e-05  -5.21383e-06 6.72571e-06 -3.88731e-05  -2.18366e-05 1.19527e-05 -4.67006e-05  3.551e-05 -9.34227e-06 -4.56639e-05  1.41658e-05 -1.30024e-06 -3.0273e-05  2.27705e-06 1.2617e-06 -1.78975e-05  -9.69786e-06 2.19076e-06 -3.05103e-05  -3.1191e-05 1.00047e-05 -4.43018e-05  2.53054e-05 -8.26624e-06 -4.85934e-05  8.35052e-06 -6.09644e-06 -3.86889e-05  3.50213e-06 -1.06226e-05 -3.03884e-05  -5.40358e-06 -6.6431e-06 -3.82979e-05  -2.61112e-05 1.98654e-06 -4.89293e-05  2.85739e-05 -2.1337e-05 -5.5083e-05  1.34687e-05 -2.3225e-05 -4.71792e-05  1.10949e-05 -3.23614e-05 -4.48287e-05  2.86694e-06 -2.73222e-05 -4.96712e-05  -1.40548e-05 -1.50998e-05 -5.34634e-05  
            </DataArray>
            <DataArray type="Float64" Name="Traction" NumberOfComponents="3" format="ascii">
               -6.39501e-05 -5.95523e-05 -0.00175588  -3.44257e-05 -7.88446e-05 -0.00175588  -1.67972e-06 -0.000123729 -0.00175588  1.20967e-05 -8.60961e-05 -0.00175588  5.73803e-05 -5.11247e-05 -0.00175588  -7.65507e-05 -3.26739e-05 -0.00175588  -2.61914e-05 -3.08774e-05 -0.00175588  3.07158e-05 -6.06323e-05 -0.00175588  4.06186e-05 -3.46777e-05 -0.00175588  8.96489e-05 -7.93415e-06 -0.00175588  -0.000121546 -4.70728e-06 -0.00175588  -5.65806e-05 2.42827e-05 -0.00175588  3.16117e-05 2.58245e-05 -0.00175588  6.78293e-05 1.1706e-05 -0.00175588  0.000135064 1.37047e-05 -0.00175588  -7.54186e-05 1.06541e-05 -0.00175588  -2.54638e-05 3.79434e-05 -0.00175588  1.76614e-05 6.14633e-05 -0.00175588  4.1071e-05 3.63197e-05 -0.00175588  9.96991e-05 2.78672e-05 -0.00175588  -4.04188e-05 5.77397e-05 -0.00175588  7.90317e-07 9.11881e-05 -0.00175588  1.96663e-05 0.000131061 -0.00175588  3.07164e-05 9.50143e-05 -0.00175588  6.33496e-05 6.07387e-05 -0.00175588  
            </DataArray>
         </PointData> 
      </Piece>
   </UnstructuredGrid> 
</VTKFile>
