<?xml version="1.0"?>
<VTKFile type="UnstructuredGrid" version="0.1" byte_order="LittleEndian">
   <UnstructuredGrid>
      <Piece NumberOfPoints="25" NumberOfCells="0" > 
         <Points> 
            <DataArray type="Float64" Name="Position" NumberOfComponents="3" format="ascii"> 
               0  0  20  
               0.75  0  20  
               1.5  0  20  
               2.25  0  20  
               3  0  20  
               0  0.75  20  
               0.75  0.75  20  
               1.5  0.75  20  
               2.25  0.75  20  
               3  0.75  20  
               0  1.5  20  
               0.75  1.5  20  
               1.5  1.5  20  
               2.25  1.5  20  
               3  1.5  20  
               0  2.25  20  
               0.75  2.25  20  
               1.5  2.25  20  
               2.25  2.25  20  
               3  2.25  20  
               0  3  20  
               0.75  3  20  
               1.5  3  20  
               2.25  3  20  
               3  3  20  
            </DataArray>
         </Points> 

         <Cells>
            <DataArray type="Int32" Name="connectivity" NumberOfComponents="1" format="ascii">
               
            </DataArray> 
            <DataArray type="Int32" Name="offsets" NumberOfComponents="1" format="ascii">
               
            </DataArray>
            <DataArray type="UInt8"  Name="types" NumberOfComponents="1" format="ascii">
               
            </DataArray>
         </Cells>
         <PointData Scalars="Rank " Vectors="Displacement Velocity Traction ">
            <DataArray type="UInt32" Name="Rank" NumberOfComponents="1" format="ascii">
               0 0 0 0 0 0 0 0 0 0 0 0 0 0 0 0 0 0 0 0 0 0 0 0 0 
            </DataArray>
            <DataArray type="Float64" Name="Displacement" NumberOfComponents="3" format="ascii">
               0.000139669 0.000144814 -0.000607763  -1.13186e-06 0.00024925 -0.000595336  -8.72562e-05 0.000294524 -0.000563614  -7.52431e-05 0.000209081 -0.000592252  -0.000162122 0.000267709 -0.000605448  0.000245638 3.82923e-06 -0.000594674  7.51817e-05 7.83559e-05 -0.000527992  -2.7804e-05 0.00012447 -0.000477969  -7.7605e-05 7.91021e-05 -0.000547831  -0.000205908 0.000137946 -0.000577832  0.000292808 -8.24209e-05 -0.000564456  0.000122618 -2.36249e-05 -0.00047868  -8.54045e-07 2.34827e-06 -0.000390323  -0.000114511 2.03626e-05 -0.000480262  -0.000282337 8.17612e-05 -0.000559308  0.000209462 -7.30768e-05 -0.000594122  7.83419e-05 -7.44951e-05 -0.000548657  1.80699e-05 -0.000112126 -0.000480554  -7.22316e-05 -7.05455e-05 -0.000532052  -0.000238706 -8.00065e-06 -0.000590245  0.000268164 -0.000161934 -0.000608442  0.000137905 -0.000203917 -0.000578733  8.00784e-05 -0.000280677 -0.000559919  -1.14858e-05 -0.00023814 -0.00059047  -0.000148698 -0.000145047 -0.000600019  
            </DataArray>
            <DataArray type="Float64" Name="Velocity" NumberOfComponents="3" format="ascii">
               0.000137469 0.000143498 -0.000649526  2.48917e-06 0.000243216 -0.000654022  -8.86896e-05 0.000286328 -0.00063084  -8.26289e-05 0.000207449 -0.000657551  -0.000160956 0.000273507 -0.000657641  0.000235018 7.629e-06 -0.000649705  7.19522e-05 7.90093e-05 -0.000604103  -3.44615e-05 0.000125485 -0.000564838  -8.87799e-05 8.55721e-05 -0.000628595  -0.000208509 0.000147452 -0.000643212  0.000278037 -8.2476e-05 -0.000627173  0.000118229 -2.91529e-05 -0.000565257  -8.12213e-06 -2.58826e-06 -0.00048844  -0.000123862 1.96406e-05 -0.000567056  -0.000281345 7.83764e-05 -0.000628753  0.000200481 -7.35843e-05 -0.0006555  7.91482e-05 -8.23886e-05 -0.000629944  1.39414e-05 -0.000117965 -0.000567604  -8.06778e-05 -7.44119e-05 -0.000609233  -0.000240506 -1.75877e-05 -0.000652813  0.000267105 -0.000151614 -0.000651613  0.000140773 -0.000200616 -0.000641108  7.33557e-05 -0.000274428 -0.000625989  -2.25948e-05 -0.000233991 -0.000648948  -0.000155562 -0.000149354 -0.000647773  
            </DataArray>
            <DataArray type="Float64" Name="Traction" NumberOfComponents="3" format="ascii">
               -0.00105198 -0.00102419 -0.00757376  -0.000350237 -0.00178973 -0.00757376  0.000464634 -0.00208472 -0.00757376  0.000370911 -0.00136762 -0.00757376  0.000803841 -0.00155714 -0.00757376  -0.00181203 -0.000310559 -0.00757376  -0.000772263 -0.000740826 -0.00757376  0.000566091 -0.00115477 -0.00757376  0.000661487 -0.000757786 -0.00757376  0.00118079 -0.000770142 -0.00757376  -0.00212057 0.000505185 -0.00757376  -0.00119208 0.000594093 -0.00757376  0.000432655 0.000462663 -0.00757376  0.00102913 0.000118449 -0.00757376  0.00190692 -9.93585e-05 -0.00757376  -0.00140711 0.000424588 -0.00757376  -0.000789719 0.000698346 -0.00757376  9.27884e-05 0.00106539 -0.00757376  0.000650165 0.000684076 -0.00757376  0.00161995 0.000317237 -0.00757376  -0.00160144 0.000868541 -0.00757376  -0.000803881 0.001226 -0.00757376  -0.000124147 0.00195033 -0.00757376  0.000298799 0.00166331 -0.00757376  0.000963177 0.000981697 -0.00757376  
            </DataArray>
         </PointData> 
      </Piece>
   </UnstructuredGrid> 
</VTKFile>
