<?xml version="1.0"?>
<VTKFile type="UnstructuredGrid" version="0.1" byte_order="LittleEndian">
   <UnstructuredGrid>
      <Piece NumberOfPoints="25" NumberOfCells="0" > 
         <Points> 
            <DataArray type="Float64" Name="Position" NumberOfComponents="3" format="ascii"> 
               0  0  20  
               0.75  0  20  
               1.5  0  20  
               2.25  0  20  
               3  0  20  
               0  0.75  20  
               0.75  0.75  20  
               1.5  0.75  20  
               2.25  0.75  20  
               3  0.75  20  
               0  1.5  20  
               0.75  1.5  20  
               1.5  1.5  20  
               2.25  1.5  20  
               3  1.5  20  
               0  2.25  20  
               0.75  2.25  20  
               1.5  2.25  20  
               2.25  2.25  20  
               3  2.25  20  
               0  3  20  
               0.75  3  20  
               1.5  3  20  
               2.25  3  20  
               3  3  20  
            </DataArray>
         </Points> 

         <Cells>
            <DataArray type="Int32" Name="connectivity" NumberOfComponents="1" format="ascii">
               
            </DataArray> 
            <DataArray type="Int32" Name="offsets" NumberOfComponents="1" format="ascii">
               
            </DataArray>
            <DataArray type="UInt8"  Name="types" NumberOfComponents="1" format="ascii">
               
            </DataArray>
         </Cells>
         <PointData Scalars="Rank " Vectors="Displacement Velocity Traction ">
            <DataArray type="UInt32" Name="Rank" NumberOfComponents="1" format="ascii">
               0 0 0 0 0 0 0 0 0 0 0 0 0 0 0 0 0 0 0 0 0 0 0 0 0 
            </DataArray>
            <DataArray type="Float64" Name="Displacement" NumberOfComponents="3" format="ascii">
               4.58233e-05 4.59445e-05 -0.000181288  -1.1694e-06 8.18628e-05 -0.000170633  -2.60615e-05 9.80066e-05 -0.000157339  -2.04297e-05 6.80934e-05 -0.000167151  -5.28464e-05 8.23094e-05 -0.000177486  8.31015e-05 -9.28855e-07 -0.000171887  2.53844e-05 2.41303e-05 -0.000141913  -5.27244e-06 3.87039e-05 -0.000121269  -1.93745e-05 2.20747e-05 -0.000146145  -6.48532e-05 3.92229e-05 -0.000163092  0.000100557 -2.61701e-05 -0.000159199  4.09175e-05 -5.39117e-06 -0.000121498  3.44086e-06 2.63842e-06 -8.81652e-05  -3.24223e-05 6.74204e-06 -0.000122139  -9.18354e-05 2.76927e-05 -0.000155954  7.114e-05 -2.28953e-05 -0.000168851  2.45057e-05 -2.02052e-05 -0.000146025  8.15662e-06 -3.33086e-05 -0.000122025  -1.91793e-05 -2.06399e-05 -0.000142818  -7.64685e-05 1.81017e-06 -0.000168405  8.47298e-05 -5.64671e-05 -0.000181042  4.16166e-05 -6.6771e-05 -0.000164201  2.88818e-05 -9.32978e-05 -0.000157022  2.13215e-06 -7.82561e-05 -0.000169714  -4.41079e-05 -4.47087e-05 -0.00017746  
            </DataArray>
            <DataArray type="Float64" Name="Velocity" NumberOfComponents="3" format="ascii">
               5.84215e-05 6.14377e-05 -0.000245312  -7.72928e-07 0.000103688 -0.000239272  -3.68784e-05 0.000120952 -0.000225805  -3.1459e-05 8.58248e-05 -0.000237715  -6.66483e-05 0.000111272 -0.000242501  0.000102028 2.40474e-06 -0.0002393  3.167e-05 3.33408e-05 -0.00021123  -1.1749e-05 5.20431e-05 -0.000190887  -3.24226e-05 3.32282e-05 -0.000219715  -8.44495e-05 5.76604e-05 -0.000231027  0.000120327 -3.39535e-05 -0.000226717  5.11104e-05 -9.21951e-06 -0.0001913  -5.78943e-07 1.30637e-06 -0.000155119  -4.70522e-05 8.37692e-06 -0.000191781  -0.00011464 3.35869e-05 -0.000222929  8.66279e-05 -3.0733e-05 -0.000239241  3.30422e-05 -3.09981e-05 -0.00022013  7.11016e-06 -4.6261e-05 -0.000191969  -2.99173e-05 -2.9626e-05 -0.000212913  -9.73585e-05 -3.66579e-06 -0.000235891  0.000112562 -6.72561e-05 -0.000245408  5.8564e-05 -8.39949e-05 -0.000231967  3.29991e-05 -0.000114646 -0.000223962  -5.48973e-06 -9.82046e-05 -0.000236835  -6.19038e-05 -6.02189e-05 -0.000240431  
            </DataArray>
            <DataArray type="Float64" Name="Traction" NumberOfComponents="3" format="ascii">
               -0.000398318 -0.00037418 -0.00278414  -0.000143757 -0.000612717 -0.00278414  0.00012519 -0.000740257 -0.00278414  0.000124046 -0.000499981 -0.00278414  0.000319861 -0.000513036 -0.00278414  -0.00063145 -0.000123952 -0.00278414  -0.00026184 -0.000248375 -0.00278414  0.000188517 -0.000398624 -0.00278414  0.000233473 -0.000257297 -0.00278414  0.000447073 -0.000227682 -0.00278414  -0.000764477 0.000134205 -0.00278414  -0.000413979 0.000188188 -0.00278414  0.000156121 0.000157091 -0.00278414  0.000364725 4.35094e-05 -0.00278414  0.000691909 -1.96721e-05 -0.00278414  -0.000516197 0.000154472 -0.00278414  -0.000262979 0.00024907 -0.00278414  4.62876e-05 0.00037545 -0.00278414  0.000230418 0.000240947 -0.00278414  0.000575913 0.000119305 -0.00278414  -0.000530244 0.00036623 -0.00278414  -0.000234064 0.000479718 -0.00278414  -1.23923e-05 0.000716264 -0.00278414  0.000118734 0.000598877 -0.00278414  0.000351765 0.000363207 -0.00278414  
            </DataArray>
         </PointData> 
      </Piece>
   </UnstructuredGrid> 
</VTKFile>
