<?xml version="1.0"?>
<VTKFile type="UnstructuredGrid" version="0.1" byte_order="LittleEndian">
   <UnstructuredGrid>
      <Piece NumberOfPoints="25" NumberOfCells="0" > 
         <Points> 
            <DataArray type="Float64" Name="Position" NumberOfComponents="3" format="ascii"> 
               0  0  20  
               0.75  0  20  
               1.5  0  20  
               2.25  0  20  
               3  0  20  
               0  0.75  20  
               0.75  0.75  20  
               1.5  0.75  20  
               2.25  0.75  20  
               3  0.75  20  
               0  1.5  20  
               0.75  1.5  20  
               1.5  1.5  20  
               2.25  1.5  20  
               3  1.5  20  
               0  2.25  20  
               0.75  2.25  20  
               1.5  2.25  20  
               2.25  2.25  20  
               3  2.25  20  
               0  3  20  
               0.75  3  20  
               1.5  3  20  
               2.25  3  20  
               3  3  20  
            </DataArray>
         </Points> 

         <Cells>
            <DataArray type="Int32" Name="connectivity" NumberOfComponents="1" format="ascii">
               
            </DataArray> 
            <DataArray type="Int32" Name="offsets" NumberOfComponents="1" format="ascii">
               
            </DataArray>
            <DataArray type="UInt8"  Name="types" NumberOfComponents="1" format="ascii">
               
            </DataArray>
         </Cells>
         <PointData Scalars="Rank " Vectors="Displacement Velocity Traction ">
            <DataArray type="UInt32" Name="Rank" NumberOfComponents="1" format="ascii">
               0 0 0 0 0 0 0 0 0 0 0 0 0 0 0 0 0 0 0 0 0 0 0 0 0 
            </DataArray>
            <DataArray type="Float64" Name="Displacement" NumberOfComponents="3" format="ascii">
               1.86416e-08 1.86323e-08 -6.30032e-08  4.83064e-10 3.17458e-08 -5.68955e-08  -1.35213e-09 4.35736e-08 -5.11897e-08  -1.9646e-09 3.08038e-08 -5.67347e-08  -1.98448e-08 2.13912e-08 -6.28384e-08  3.1756e-08 4.86791e-10 -5.68959e-08  5.24443e-09 5.24727e-09 -4.16823e-08  -3.76321e-10 9.63821e-09 -2.7289e-08  -4.93953e-09 4.82725e-09 -4.16727e-08  -3.07271e-08 3.14873e-09 -5.67548e-08  4.35677e-08 -1.34899e-09 -5.119e-08  9.63874e-09 -3.72635e-10 -2.72893e-08  3.88745e-10 3.87311e-10 -4.42883e-09  -9.20159e-09 3.89633e-10 -2.73243e-08  -4.32749e-08 1.51024e-09 -5.12481e-08  3.07983e-08 -1.96532e-09 -5.6734e-08  4.82669e-09 -4.94128e-09 -4.16734e-08  3.94e-10 -9.20263e-09 -2.73256e-08  -5.13725e-09 -5.13431e-09 -4.17076e-08  -3.17091e-08 -6.68431e-10 -5.69054e-08  2.13952e-08 -1.98495e-08 -6.28368e-08  3.14771e-09 -3.07287e-08 -5.6756e-08  1.52342e-09 -4.32841e-08 -5.12516e-08  -6.74652e-10 -3.17335e-08 -5.69073e-08  -1.86321e-08 -1.86465e-08 -6.29749e-08  
            </DataArray>
            <DataArray type="Float64" Name="Velocity" NumberOfComponents="3" format="ascii">
               7.47799e-08 7.47079e-08 -2.59956e-07  1.16609e-09 1.29173e-07 -2.34204e-07  -8.96994e-09 1.75167e-07 -2.10714e-07  -1.08969e-08 1.23108e-07 -2.33068e-07  -8.24531e-08 9.24386e-08 -2.59058e-07  1.29246e-07 1.19106e-09 -2.34207e-07  2.31169e-08 2.31382e-08 -1.72779e-07  -2.42212e-09 4.23191e-08 -1.16537e-07  -2.11635e-08 2.05082e-08 -1.72797e-07  -1.22622e-07 1.84289e-08 -2.33165e-07  1.75125e-07 -8.94775e-09 -2.10716e-07  4.23226e-08 -2.39228e-09 -1.16539e-07  2.4137e-09 2.4027e-09 -2.87001e-08  -3.95562e-08 2.50459e-09 -1.16771e-07  -1.73293e-07 9.92806e-09 -2.11076e-07  1.23063e-07 -1.08999e-08 -2.33062e-07  2.05019e-08 -2.11782e-08 -1.72803e-07  2.5395e-09 -3.95656e-08 -1.16779e-07  -2.24214e-08 -2.24031e-08 -1.72949e-07  -1.289e-07 -2.33675e-09 -2.34262e-07  9.24654e-08 -8.24883e-08 -2.59046e-07  1.84221e-08 -1.22635e-07 -2.33174e-07  1.00192e-08 -1.73359e-07 -2.11101e-07  -2.37841e-09 -1.2908e-07 -2.34276e-07  -7.47569e-08 -7.48735e-08 -2.59804e-07  
            </DataArray>
            <DataArray type="Float64" Name="Traction" NumberOfComponents="3" format="ascii">
               -1.42272e-07 -1.44379e-07 2.48792e-07  -3.90691e-08 -2.45302e-07 2.48792e-07  2.64162e-08 -3.55358e-07 2.48792e-07  3.22526e-08 -2.41617e-07 2.48792e-07  1.34854e-07 -1.43438e-07 2.48792e-07  -2.45817e-07 -4.08888e-08 2.48792e-07  -9.60161e-08 -9.542e-08 2.48792e-07  7.31926e-08 -1.63436e-07 2.48792e-07  9.49239e-08 -9.52542e-08 2.48792e-07  2.39798e-07 -3.87662e-08 2.48792e-07  -3.56994e-07 2.63705e-08 2.48792e-07  -1.64565e-07 7.30535e-08 2.48792e-07  1.11381e-07 1.10881e-07 2.48792e-07  1.64856e-07 6.63685e-08 2.48792e-07  3.58708e-07 2.6246e-08 2.48792e-07  -2.41873e-07 3.24668e-08 2.48792e-07  -9.53658e-08 9.46763e-08 2.48792e-07  6.62044e-08 1.63947e-07 2.48792e-07  9.44764e-08 9.52151e-08 2.48792e-07  2.45468e-07 3.82794e-08 2.48792e-07  -1.42132e-07 1.35399e-07 2.48792e-07  -3.74719e-08 2.39629e-07 2.48792e-07  2.95455e-08 3.56781e-07 2.48792e-07  4.3558e-08 2.4675e-07 2.48792e-07  1.43821e-07 1.40038e-07 2.48792e-07  
            </DataArray>
         </PointData> 
      </Piece>
   </UnstructuredGrid> 
</VTKFile>
