<?xml version="1.0"?>
<VTKFile type="UnstructuredGrid" version="0.1" byte_order="LittleEndian">
   <UnstructuredGrid>
      <Piece NumberOfPoints="25" NumberOfCells="0" > 
         <Points> 
            <DataArray type="Float64" Name="Position" NumberOfComponents="3" format="ascii"> 
               0  0  15  
               0.75  0  15  
               1.5  0  15  
               2.25  0  15  
               3  0  15  
               0  0.75  15  
               0.75  0.75  15  
               1.5  0.75  15  
               2.25  0.75  15  
               3  0.75  15  
               0  1.5  15  
               0.75  1.5  15  
               1.5  1.5  15  
               2.25  1.5  15  
               3  1.5  15  
               0  2.25  15  
               0.75  2.25  15  
               1.5  2.25  15  
               2.25  2.25  15  
               3  2.25  15  
               0  3  15  
               0.75  3  15  
               1.5  3  15  
               2.25  3  15  
               3  3  15  
            </DataArray>
         </Points> 

         <Cells>
            <DataArray type="Int32" Name="connectivity" NumberOfComponents="1" format="ascii">
               
            </DataArray> 
            <DataArray type="Int32" Name="offsets" NumberOfComponents="1" format="ascii">
               
            </DataArray>
            <DataArray type="UInt8"  Name="types" NumberOfComponents="1" format="ascii">
               
            </DataArray>
         </Cells>
         <PointData Scalars="Rank " Vectors="Displacement Velocity Traction ">
            <DataArray type="UInt32" Name="Rank" NumberOfComponents="1" format="ascii">
               0 0 0 0 0 0 0 0 0 0 0 0 0 0 0 0 0 0 0 0 0 0 0 0 0 
            </DataArray>
            <DataArray type="Float64" Name="Displacement" NumberOfComponents="3" format="ascii">
               0.000456771 0.00035469 -0.000113093  0.000440101 7.45636e-05 -0.000104414  0.000371832 1.81323e-05 -9.51391e-05  0.000292137 -1.22252e-05 -0.000101573  0.000263936 -0.000180699 -0.000110085  0.000119528 0.000340165 -0.000105573  0.000122764 7.66831e-05 -8.41322e-05  9.71946e-05 3.23972e-05 -6.94782e-05  7.62208e-05 -1.60979e-05 -8.60547e-05  8.51111e-05 -0.000206933 -9.9404e-05  3.78411e-05 0.000279213 -9.6621e-05  5.5555e-05 4.02715e-05 -6.95914e-05  2.12472e-05 -1.61099e-05 -4.67865e-05  -5.12475e-06 -6.88549e-05 -7.00892e-05  1.74968e-05 -0.000276985 -9.46069e-05  -1.16498e-05 0.000205724 -0.000102743  -6.02031e-06 1.50296e-06 -8.58478e-05  -3.34163e-05 -6.01548e-05 -6.99276e-05  -5.75296e-05 -0.000118177 -8.45675e-05  -5.35709e-05 -0.000329744 -0.000103239  -0.000153448 0.000179343 -0.000112616  -0.000172747 -3.1809e-06 -0.000100197  -0.000222615 -5.64001e-05 -9.5308e-05  -0.000253628 -0.000129374 -0.000104188  -0.000255364 -0.000339392 -0.000110783  
            </DataArray>
            <DataArray type="Float64" Name="Velocity" NumberOfComponents="3" format="ascii">
               0.000258361 0.000273004 -0.000170783  0.000242755 3.97922e-05 -0.000163929  0.000183855 -2.91242e-05 -0.000153327  0.000114557 -4.22047e-05 -0.000162016  8.80759e-05 -0.000185752 -0.00016737  1.30604e-05 0.000256667 -0.000164533  1.32464e-05 3.9079e-05 -0.000141468  -2.51907e-05 -7.61544e-06 -0.00012562  -6.21896e-05 -3.93925e-05 -0.000146993  -5.95044e-05 -0.000210628 -0.000157229  -5.88067e-05 0.000199519 -0.000154674  -3.77554e-05 -1.79193e-06 -0.000125936  -6.48286e-05 -3.69795e-05 -9.8468e-05  -8.90213e-05 -8.22905e-05 -0.000126305  -6.65005e-05 -0.000275461 -0.000151055  -7.19616e-05 0.000132337 -0.000163628  -6.88549e-05 -4.05499e-05 -0.00014712  -0.00010851 -6.39922e-05 -0.000126358  -0.000147507 -0.00012683 -0.00014255  -0.00014654 -0.000330462 -0.000161022  -0.00020749 0.000106548 -0.000170634  -0.000230917 -3.90531e-05 -0.000158254  -0.000291147 -4.47021e-05 -0.000152265  -0.000339906 -0.000130456 -0.000162376  -0.000351969 -0.000346251 -0.000166362  
            </DataArray>
            <DataArray type="Float64" Name="Traction" NumberOfComponents="3" format="ascii">
               0 0 0  0 0 0  0 0 0  0 0 0  0 0 0  0 0 0  0 0 0  0 0 0  0 0 0  0 0 0  0 0 0  0 0 0  0 0 0  0 0 0  0 0 0  0 0 0  0 0 0  0 0 0  0 0 0  0 0 0  0 0 0  0 0 0  0 0 0  0 0 0  0 0 0  
            </DataArray>
         </PointData> 
      </Piece>
   </UnstructuredGrid> 
</VTKFile>
