<?xml version="1.0"?>
<VTKFile type="UnstructuredGrid" version="0.1" byte_order="LittleEndian">
   <UnstructuredGrid>
      <Piece NumberOfPoints="25" NumberOfCells="0" > 
         <Points> 
            <DataArray type="Float64" Name="Position" NumberOfComponents="3" format="ascii"> 
               0  0  15  
               0.75  0  15  
               1.5  0  15  
               2.25  0  15  
               3  0  15  
               0  0.75  15  
               0.75  0.75  15  
               1.5  0.75  15  
               2.25  0.75  15  
               3  0.75  15  
               0  1.5  15  
               0.75  1.5  15  
               1.5  1.5  15  
               2.25  1.5  15  
               3  1.5  15  
               0  2.25  15  
               0.75  2.25  15  
               1.5  2.25  15  
               2.25  2.25  15  
               3  2.25  15  
               0  3  15  
               0.75  3  15  
               1.5  3  15  
               2.25  3  15  
               3  3  15  
            </DataArray>
         </Points> 

         <Cells>
            <DataArray type="Int32" Name="connectivity" NumberOfComponents="1" format="ascii">
               
            </DataArray> 
            <DataArray type="Int32" Name="offsets" NumberOfComponents="1" format="ascii">
               
            </DataArray>
            <DataArray type="UInt8"  Name="types" NumberOfComponents="1" format="ascii">
               
            </DataArray>
         </Cells>
         <PointData Scalars="Rank " Vectors="Displacement Velocity Traction ">
            <DataArray type="UInt32" Name="Rank" NumberOfComponents="1" format="ascii">
               0 0 0 0 0 0 0 0 0 0 0 0 0 0 0 0 0 0 0 0 0 0 0 0 0 
            </DataArray>
            <DataArray type="Float64" Name="Displacement" NumberOfComponents="3" format="ascii">
               0.00049132 0.000391629 -0.000137148  0.000472513 7.97273e-05 -0.000127589  0.000396218 1.38086e-05 -0.00011686  0.000307086 -1.8164e-05 -0.000124507  0.000275277 -0.000206122 -0.0001337  0.000120729 0.000374866 -0.000128813  0.000123973 8.17399e-05 -0.000104243  9.30744e-05 3.10464e-05 -8.74126e-05  6.69577e-05 -2.16365e-05 -0.000106957  7.61959e-05 -0.000235778 -0.000121666  2.92906e-05 0.000306117 -0.000118509  4.98948e-05 3.97094e-05 -8.75697e-05  1.1894e-05 -2.13984e-05 -6.09716e-05  -1.78086e-05 -8.02296e-05 -8.81174e-05  7.87977e-06 -0.000314707 -0.000116013  -2.18007e-05 0.000223465 -0.000125888  -1.57628e-05 -4.37819e-06 -0.000106774  -4.86502e-05 -6.90697e-05 -8.7966e-05  -7.81807e-05 -0.000135615 -0.000104832  -7.41227e-05 -0.000374983 -0.000126017  -0.000182227 0.000193558 -0.000136654  -0.000204769 -8.82821e-06 -0.000122593  -0.000262967 -6.26039e-05 -0.00011687  -0.000300744 -0.00014727 -0.000127135  -0.000304177 -0.000386791 -0.000134243  
            </DataArray>
            <DataArray type="Float64" Name="Velocity" NumberOfComponents="3" format="ascii">
               0.000272169 0.000293815 -0.000197734  0.000255014 3.96257e-05 -0.00019104  0.000190804 -3.69124e-05 -0.000179362  0.000115356 -4.87349e-05 -0.000189255  8.6496e-05 -0.000204094 -0.000194387  5.87932e-06 0.000275837 -0.000191453  5.82333e-06 3.87077e-05 -0.000166511  -3.73995e-05 -1.28623e-05 -0.000148986  -7.9192e-05 -4.54321e-05 -0.000173096  -7.65202e-05 -0.000231687 -0.000183755  -7.18812e-05 0.000213396 -0.000180579  -4.86179e-05 -6.56769e-06 -0.000149342  -7.81793e-05 -4.39564e-05 -0.000118657  -0.00010504 -9.20651e-05 -0.000149738  -8.05177e-05 -0.00030299 -0.00017681  -8.34517e-05 0.000140029 -0.000190871  -8.02812e-05 -4.93684e-05 -0.000173327  -0.000124774 -7.26224e-05 -0.00014984  -0.000168773 -0.000140537 -0.000167783  -0.000168194 -0.000363255 -0.000187875  -0.000233491 0.000111745 -0.000197602  -0.000259783 -4.73082e-05 -0.00018477  -0.00032721 -5.04053e-05 -0.000177986  -0.000382099 -0.000143968 -0.000189124  -0.00039601 -0.000380605 -0.000193027  
            </DataArray>
            <DataArray type="Float64" Name="Traction" NumberOfComponents="3" format="ascii">
               0 0 0  0 0 0  0 0 0  0 0 0  0 0 0  0 0 0  0 0 0  0 0 0  0 0 0  0 0 0  0 0 0  0 0 0  0 0 0  0 0 0  0 0 0  0 0 0  0 0 0  0 0 0  0 0 0  0 0 0  0 0 0  0 0 0  0 0 0  0 0 0  0 0 0  
            </DataArray>
         </PointData> 
      </Piece>
   </UnstructuredGrid> 
</VTKFile>
