<?xml version="1.0"?>
<VTKFile type="UnstructuredGrid" version="0.1" byte_order="LittleEndian">
   <UnstructuredGrid>
      <Piece NumberOfPoints="25" NumberOfCells="0" > 
         <Points> 
            <DataArray type="Float64" Name="Position" NumberOfComponents="3" format="ascii"> 
               0  0  15  
               0.75  0  15  
               1.5  0  15  
               2.25  0  15  
               3  0  15  
               0  0.75  15  
               0.75  0.75  15  
               1.5  0.75  15  
               2.25  0.75  15  
               3  0.75  15  
               0  1.5  15  
               0.75  1.5  15  
               1.5  1.5  15  
               2.25  1.5  15  
               3  1.5  15  
               0  2.25  15  
               0.75  2.25  15  
               1.5  2.25  15  
               2.25  2.25  15  
               3  2.25  15  
               0  3  15  
               0.75  3  15  
               1.5  3  15  
               2.25  3  15  
               3  3  15  
            </DataArray>
         </Points> 

         <Cells>
            <DataArray type="Int32" Name="connectivity" NumberOfComponents="1" format="ascii">
               
            </DataArray> 
            <DataArray type="Int32" Name="offsets" NumberOfComponents="1" format="ascii">
               
            </DataArray>
            <DataArray type="UInt8"  Name="types" NumberOfComponents="1" format="ascii">
               
            </DataArray>
         </Cells>
         <PointData Scalars="Rank " Vectors="Displacement Velocity Traction ">
            <DataArray type="UInt32" Name="Rank" NumberOfComponents="1" format="ascii">
               0 0 0 0 0 0 0 0 0 0 0 0 0 0 0 0 0 0 0 0 0 0 0 0 0 
            </DataArray>
            <DataArray type="Float64" Name="Displacement" NumberOfComponents="3" format="ascii">
               0.0018062 0.00219343 -0.0167503  0.00146949 0.000384016 -0.0161117  0.000979356 -0.000350656 -0.0152162  0.000567417 -0.000563769 -0.0161538  0.000279079 -0.00144779 -0.0167495  -6.03815e-05 0.00185417 -0.0161131  -0.000340725 9.73104e-05 -0.0139672  -0.000864544 -0.000421371 -0.0121468  -0.00128546 -0.000767269 -0.0143641  -0.00141864 -0.0019258 -0.0159113  -0.000766523 0.0013644 -0.0152079  -0.000833724 -0.000443362 -0.0121425  -0.00116054 -0.000757811 -0.00908877  -0.00151637 -0.00119528 -0.0122141  -0.00155713 -0.00263012 -0.0151821  -0.00101271 0.000950993 -0.0161378  -0.00120999 -0.000876471 -0.0143572  -0.0016295 -0.00111622 -0.0122106  -0.00213291 -0.00170242 -0.014085  -0.00240109 -0.00324295 -0.0160813  -0.00194696 0.000659557 -0.0167212  -0.00241777 -0.00101233 -0.0158983  -0.00311233 -0.00115582 -0.0151727  -0.00371908 -0.00197179 -0.016077  -0.00406879 -0.00359466 -0.0166388  
            </DataArray>
            <DataArray type="Float64" Name="Velocity" NumberOfComponents="3" format="ascii">
               -0.000660364 -0.000532324 -0.0335038  -0.00113537 0.000695216 -0.0311597  -0.000923594 0.000865435 -0.0287111  -0.000324079 0.000263788 -0.0311759  -0.00047917 0.00133227 -0.0334663  0.000582791 -0.00101099 -0.0311843  -0.000137326 -2.61203e-05 -0.0252812  -0.000354433 9.63751e-05 -0.0199981  -0.000363728 -0.000333313 -0.0256854  -0.000825198 0.000776541 -0.0309052  0.000766148 -0.000803315 -0.0287312  -4.31507e-06 -0.000242635 -0.0199951  -0.000133227 -2.68681e-05 -0.0115764  -0.000375805 -0.000286708 -0.0200829  -0.00109881 0.000712601 -0.0286725  0.000160505 -0.000204519 -0.0311853  -0.000438469 -0.000249712 -0.025677  -0.000400066 -0.000266548 -0.0200798  -0.000569612 -0.000450605 -0.0254275  -0.00125319 0.000577776 -0.0310993  0.00121537 -0.000360021 -0.0335004  0.000657615 -0.000706733 -0.0309175  0.000581675 -0.000983376 -0.0286912  0.000436454 -0.00113157 -0.0311209  -9.47043e-05 4.66554e-05 -0.0333288  
            </DataArray>
            <DataArray type="Float64" Name="Traction" NumberOfComponents="3" format="ascii">
               0 0 0  0 0 0  0 0 0  0 0 0  0 0 0  0 0 0  0 0 0  0 0 0  0 0 0  0 0 0  0 0 0  0 0 0  0 0 0  0 0 0  0 0 0  0 0 0  0 0 0  0 0 0  0 0 0  0 0 0  0 0 0  0 0 0  0 0 0  0 0 0  0 0 0  
            </DataArray>
         </PointData> 
      </Piece>
   </UnstructuredGrid> 
</VTKFile>
