<?xml version="1.0"?>
<VTKFile type="UnstructuredGrid" version="0.1" byte_order="LittleEndian">
   <UnstructuredGrid>
      <Piece NumberOfPoints="25" NumberOfCells="0" > 
         <Points> 
            <DataArray type="Float64" Name="Position" NumberOfComponents="3" format="ascii"> 
               0  0  15  
               0.75  0  15  
               1.5  0  15  
               2.25  0  15  
               3  0  15  
               0  0.75  15  
               0.75  0.75  15  
               1.5  0.75  15  
               2.25  0.75  15  
               3  0.75  15  
               0  1.5  15  
               0.75  1.5  15  
               1.5  1.5  15  
               2.25  1.5  15  
               3  1.5  15  
               0  2.25  15  
               0.75  2.25  15  
               1.5  2.25  15  
               2.25  2.25  15  
               3  2.25  15  
               0  3  15  
               0.75  3  15  
               1.5  3  15  
               2.25  3  15  
               3  3  15  
            </DataArray>
         </Points> 

         <Cells>
            <DataArray type="Int32" Name="connectivity" NumberOfComponents="1" format="ascii">
               
            </DataArray> 
            <DataArray type="Int32" Name="offsets" NumberOfComponents="1" format="ascii">
               
            </DataArray>
            <DataArray type="UInt8"  Name="types" NumberOfComponents="1" format="ascii">
               
            </DataArray>
         </Cells>
         <PointData Scalars="Rank " Vectors="Displacement Velocity Traction ">
            <DataArray type="UInt32" Name="Rank" NumberOfComponents="1" format="ascii">
               0 0 0 0 0 0 0 0 0 0 0 0 0 0 0 0 0 0 0 0 0 0 0 0 0 
            </DataArray>
            <DataArray type="Float64" Name="Displacement" NumberOfComponents="3" format="ascii">
               2.43622e-10 2.58908e-10 -6.95531e-10  2.34206e-10 -4.54028e-11 -6.39999e-10  1.19922e-10 6.10076e-11 -5.8626e-10  3.08573e-11 -1.50437e-11 -6.39999e-10  5.02359e-11 -5.95667e-11 -6.95328e-10  -4.06698e-11 2.69151e-10 -6.39993e-10  -5.49611e-11 -6.46843e-11 -4.92614e-10  -2.61296e-11 9.10391e-11 -3.47776e-10  3.82498e-11 -3.24841e-12 -4.92602e-10  5.69513e-11 -2.03583e-11 -6.39985e-10  7.63577e-11 1.09529e-10 -5.86257e-10  1.02701e-10 -1.8439e-11 -3.47766e-10  -7.0942e-12 -4.93151e-12 -1.1294e-10  -1.52223e-10 5.92493e-11 -3.47774e-10  -1.70614e-10 -1.66406e-10 -5.86287e-10  -2.63224e-12 3.42288e-11 -6.39995e-10  -1.26576e-11 3.9739e-11 -4.92603e-10  5.90199e-11 -1.40976e-10 -3.47785e-10  7.51969e-11 5.14075e-11 -4.92616e-10  4.91645e-12 -2.39604e-10 -6.40007e-10  -8.90903e-11 3.888e-11 -6.95324e-10  -2.34127e-11 3.81982e-11 -6.4e-10  -2.19603e-10 -1.19632e-10 -5.86283e-10  -3.27429e-10 -1.65794e-11 -6.40022e-10  -1.86037e-10 -1.77966e-10 -6.95478e-10  
            </DataArray>
            <DataArray type="Float64" Name="Velocity" NumberOfComponents="3" format="ascii">
               4.25262e-09 4.56699e-09 -9.78896e-09  3.95601e-09 -8.07883e-10 -8.89125e-09  2.07566e-09 1.15867e-09 -8.01739e-09  6.13719e-10 -2.26816e-10 -8.89073e-09  7.39775e-10 -8.38006e-10 -9.78434e-09  -7.13333e-10 4.55041e-09 -8.89115e-09  -9.22069e-10 -1.08475e-09 -6.49596e-09  -4.34183e-10 1.4871e-09 -4.13263e-09  6.40575e-10 -4.65926e-11 -6.49556e-09  9.48511e-10 -4.45919e-10 -8.89065e-09  1.43874e-09 1.92047e-09 -8.01741e-09  1.6953e-09 -3.0929e-10 -4.13246e-09  -1.38475e-10 -7.91149e-11 -2.94221e-10  -2.55289e-09 9.69685e-10 -4.13273e-09  -2.99025e-09 -2.83767e-09 -8.01818e-09  -5.58844e-11 6.5778e-10 -8.89064e-09  -1.88435e-10 6.6022e-10 -6.49557e-09  9.7623e-10 -2.35514e-09 -4.13291e-09  1.26402e-09 8.76884e-10 -6.4961e-09  1.6327e-10 -3.98423e-09 -8.89141e-09  -1.3241e-09 5.66615e-10 -9.78428e-09  -5.24388e-10 6.61959e-10 -8.8909e-09  -3.75234e-09 -2.13955e-09 -8.01809e-09  -5.49798e-09 -2.50651e-10 -8.89167e-09  -3.49277e-09 -3.26337e-09 -9.78799e-09  
            </DataArray>
            <DataArray type="Float64" Name="Traction" NumberOfComponents="3" format="ascii">
               0 0 0  0 0 0  0 0 0  0 0 0  0 0 0  0 0 0  0 0 0  0 0 0  0 0 0  0 0 0  0 0 0  0 0 0  0 0 0  0 0 0  0 0 0  0 0 0  0 0 0  0 0 0  0 0 0  0 0 0  0 0 0  0 0 0  0 0 0  0 0 0  0 0 0  
            </DataArray>
         </PointData> 
      </Piece>
   </UnstructuredGrid> 
</VTKFile>
