<?xml version="1.0"?>
<VTKFile type="UnstructuredGrid" version="0.1" byte_order="LittleEndian">
   <UnstructuredGrid>
      <Piece NumberOfPoints="25" NumberOfCells="0" > 
         <Points> 
            <DataArray type="Float64" Name="Position" NumberOfComponents="3" format="ascii"> 
               0  0  15  
               0.75  0  15  
               1.5  0  15  
               2.25  0  15  
               3  0  15  
               0  0.75  15  
               0.75  0.75  15  
               1.5  0.75  15  
               2.25  0.75  15  
               3  0.75  15  
               0  1.5  15  
               0.75  1.5  15  
               1.5  1.5  15  
               2.25  1.5  15  
               3  1.5  15  
               0  2.25  15  
               0.75  2.25  15  
               1.5  2.25  15  
               2.25  2.25  15  
               3  2.25  15  
               0  3  15  
               0.75  3  15  
               1.5  3  15  
               2.25  3  15  
               3  3  15  
            </DataArray>
         </Points> 

         <Cells>
            <DataArray type="Int32" Name="connectivity" NumberOfComponents="1" format="ascii">
               
            </DataArray> 
            <DataArray type="Int32" Name="offsets" NumberOfComponents="1" format="ascii">
               
            </DataArray>
            <DataArray type="UInt8"  Name="types" NumberOfComponents="1" format="ascii">
               
            </DataArray>
         </Cells>
         <PointData Scalars="Rank " Vectors="Displacement Velocity Traction ">
            <DataArray type="UInt32" Name="Rank" NumberOfComponents="1" format="ascii">
               0 0 0 0 0 0 0 0 0 0 0 0 0 0 0 0 0 0 0 0 0 0 0 0 0 
            </DataArray>
            <DataArray type="Float64" Name="Displacement" NumberOfComponents="3" format="ascii">
               1.36706e-05 6.28629e-06 -4.36069e-06  1.36212e-05 -4.07187e-07 -4.61882e-06  1.21002e-05 -1.45525e-06 -4.65559e-06  1.03675e-05 1.05974e-06 -4.72201e-06  9.98761e-06 1.28387e-06 -4.34088e-06  1.82477e-06 5.84733e-06 -4.60681e-06  2.03699e-06 -2.1254e-07 -4.68258e-06  1.79523e-06 -9.90612e-07 -4.78957e-06  1.22417e-06 1.22531e-06 -4.97299e-06  1.1672e-06 5.9862e-07 -4.49531e-06  3.21345e-06 5.1814e-06 -4.6396e-06  2.59541e-06 1.49408e-07 -4.79319e-06  4.12825e-07 -1.47801e-06 -4.71766e-06  -1.97741e-06 1.46381e-06 -4.82412e-06  -3.04797e-06 -3.68053e-07 -4.58618e-06  2.94473e-06 4.45765e-06 -4.69619e-06  2.69681e-06 3.99969e-07 -4.97419e-06  2.37507e-06 -2.389e-06 -4.81885e-06  2.46676e-06 1.63879e-06 -4.73969e-06  2.13783e-06 5.21402e-07 -4.58344e-06  -4.07722e-06 4.04357e-06 -4.33161e-06  -4.47367e-06 5.28932e-07 -4.51709e-06  -5.73286e-06 -2.85386e-06 -4.60662e-06  -5.24452e-06 1.06434e-06 -4.59993e-06  -4.11346e-06 1.38295e-06 -4.30775e-06  
            </DataArray>
            <DataArray type="Float64" Name="Velocity" NumberOfComponents="3" format="ascii">
               1.60678e-05 3.68329e-06 7.38037e-08  1.62297e-05 -4.78269e-07 -6.0598e-07  1.498e-05 -2.40944e-07 -1.11159e-06  1.33193e-05 2.12346e-06 -9.42803e-07  1.30203e-05 2.44482e-06 8.08799e-08  4.04793e-06 3.77632e-06 -5.69769e-07  4.17849e-06 -1.58812e-07 -1.64168e-06  4.23769e-06 -7.63893e-08 -2.33706e-06  4.04461e-06 1.95831e-06 -1.90359e-06  4.20605e-06 1.785e-06 -7.48728e-07  4.82806e-06 4.05585e-06 -1.08301e-06  3.98145e-06 3.09461e-07 -2.34583e-06  2.06105e-06 -1.03985e-06 -3.10569e-06  2.12433e-07 1.52834e-06 -2.35557e-06  -4.79845e-07 7.06814e-07 -1.025e-06  4.23978e-06 3.90081e-06 -9.09609e-07  3.94795e-06 3.97455e-07 -1.90455e-06  3.83386e-06 -2.18108e-06 -2.35728e-06  4.27745e-06 1.44293e-06 -1.67921e-06  4.12009e-06 1.60489e-06 -5.77566e-07  -1.25282e-06 3.78314e-06 8.93821e-08  -1.29429e-06 2.33602e-07 -7.72339e-07  -1.46943e-06 -3.1458e-06 -1.04613e-06  8.65457e-08 7.81582e-07 -5.80321e-07  1.42442e-06 2.75403e-06 1.2194e-07  
            </DataArray>
            <DataArray type="Float64" Name="Traction" NumberOfComponents="3" format="ascii">
               0.000244291 0.000253786 0.000136366  -0.000108035 0.000141058 0.000136366  -2.55777e-05 4.5506e-05 0.000136366  4.5825e-05 0.000170356 0.000136366  -0.000296526 0.000315857 0.000136366  0.000307072 -8.59994e-05 0.000136366  3.80848e-05 -7.61859e-06 0.000136366  1.43365e-05 5.8155e-05 0.000136366  2.63954e-05 2.24731e-05 0.000136366  -0.000347084 1.94757e-05 0.000136366  0.000321538 -1.04517e-05 0.000136366  8.68804e-05 7.32253e-06 0.000136366  2.15577e-05 9.27344e-06 0.000136366  2.02916e-05 9.95647e-06 0.000136366  -0.000428137 -3.11077e-06 0.000136366  0.000341543 5.20084e-05 0.000136366  3.57835e-05 1.90635e-05 0.000136366  1.84594e-05 -2.55228e-05 0.000136366  3.66226e-05 9.33779e-07 0.000136366  -0.000101096 -4.58814e-05 0.000136366  0.000368467 -0.000319012 0.000136366  1.22469e-05 -0.000273459 0.000136366  3.57839e-05 -0.000257475 0.000136366  3.48633e-05 -1.98608e-05 0.000136366  0.000222079 0.000166108 0.000136366  
            </DataArray>
         </PointData> 
      </Piece>
   </UnstructuredGrid> 
</VTKFile>
