<?xml version="1.0"?>
<VTKFile type="UnstructuredGrid" version="0.1" byte_order="LittleEndian">
   <UnstructuredGrid>
      <Piece NumberOfPoints="25" NumberOfCells="0" > 
         <Points> 
            <DataArray type="Float64" Name="Position" NumberOfComponents="3" format="ascii"> 
               0  0  20  
               0.75  0  20  
               1.5  0  20  
               2.25  0  20  
               3  0  20  
               0  0.75  20  
               0.75  0.75  20  
               1.5  0.75  20  
               2.25  0.75  20  
               3  0.75  20  
               0  1.5  20  
               0.75  1.5  20  
               1.5  1.5  20  
               2.25  1.5  20  
               3  1.5  20  
               0  2.25  20  
               0.75  2.25  20  
               1.5  2.25  20  
               2.25  2.25  20  
               3  2.25  20  
               0  3  20  
               0.75  3  20  
               1.5  3  20  
               2.25  3  20  
               3  3  20  
            </DataArray>
         </Points> 

         <Cells>
            <DataArray type="Int32" Name="connectivity" NumberOfComponents="1" format="ascii">
               
            </DataArray> 
            <DataArray type="Int32" Name="offsets" NumberOfComponents="1" format="ascii">
               
            </DataArray>
            <DataArray type="UInt8"  Name="types" NumberOfComponents="1" format="ascii">
               
            </DataArray>
         </Cells>
         <PointData Scalars="Rank " Vectors="Displacement Velocity Traction ">
            <DataArray type="UInt32" Name="Rank" NumberOfComponents="1" format="ascii">
               0 0 0 0 0 0 0 0 0 0 0 0 0 0 0 0 0 0 0 0 0 0 0 0 0 
            </DataArray>
            <DataArray type="Float64" Name="Displacement" NumberOfComponents="3" format="ascii">
               7.86426e-06 6.86155e-06 -3.36232e-05  -4.37756e-07 1.53496e-05 -2.9515e-05  -3.39177e-06 2.06892e-05 -2.57613e-05  -1.61238e-06 1.34693e-05 -2.80127e-05  -9.73713e-06 1.31672e-05 -3.27814e-05  1.65513e-05 -1.53097e-06 -3.01022e-05  4.48486e-06 3.22446e-06 -2.12516e-05  4.18972e-07 6.33157e-06 -1.48735e-05  -1.10681e-06 2.22038e-06 -2.08839e-05  -1.22387e-05 4.62633e-06 -2.80382e-05  2.21866e-05 -4.54101e-06 -2.63028e-05  7.79671e-06 -5.45044e-07 -1.48381e-05  2.07822e-06 1.0649e-06 -5.98991e-06  -4.61859e-06 1.46276e-06 -1.51162e-05  -1.96265e-05 5.67259e-06 -2.62517e-05  1.46165e-05 -3.10424e-06 -2.82503e-05  3.44744e-06 -1.92094e-06 -2.07143e-05  2.50352e-06 -5.09128e-06 -1.49895e-05  -1.93337e-06 -2.45334e-06 -2.12114e-05  -1.51082e-05 2.31464e-06 -2.97535e-05  1.36145e-05 -1.13353e-05 -3.33633e-05  5.20023e-06 -1.31828e-05 -2.82119e-05  6.24031e-06 -1.99971e-05 -2.6222e-05  2.85886e-06 -1.52759e-05 -2.98098e-05  -6.40191e-06 -6.9705e-06 -3.36566e-05  
            </DataArray>
            <DataArray type="Float64" Name="Velocity" NumberOfComponents="3" format="ascii">
               2.04793e-05 2.0188e-05 -7.13953e-05  -7.87096e-07 3.56169e-05 -6.56256e-05  -1.13612e-05 4.16363e-05 -5.97049e-05  -8.9857e-06 2.91803e-05 -6.36424e-05  -2.38521e-05 3.51214e-05 -6.93672e-05  3.66626e-05 -9.74878e-07 -6.64596e-05  1.14956e-05 1.0473e-05 -5.22653e-05  -1.41531e-06 1.63493e-05 -4.33389e-05  -7.50508e-06 9.19846e-06 -5.37935e-05  -2.7222e-05 1.63223e-05 -6.18676e-05  4.34395e-05 -1.18024e-05 -6.08923e-05  1.79603e-05 -1.86134e-06 -4.34514e-05  2.31841e-06 1.41582e-06 -2.90125e-05  -1.29206e-05 2.79174e-06 -4.37172e-05  -3.83349e-05 1.24932e-05 -5.89762e-05  3.12051e-05 -1.068e-05 -6.46305e-05  1.09433e-05 -8.34645e-06 -5.36236e-05  4.09271e-06 -1.38919e-05 -4.36108e-05  -7.50594e-06 -8.87714e-06 -5.26284e-05  -3.24692e-05 1.65888e-06 -6.43979e-05  3.68714e-05 -2.61261e-05 -7.14441e-05  1.81198e-05 -2.873e-05 -6.25039e-05  1.36508e-05 -3.96828e-05 -5.97182e-05  2.45686e-06 -3.39697e-05 -6.53765e-05  -1.83127e-05 -1.93243e-05 -6.9163e-05  
            </DataArray>
            <DataArray type="Float64" Name="Traction" NumberOfComponents="3" format="ascii">
               -9.37792e-05 -8.70759e-05 -0.000790021  -4.36368e-05 -0.000124868 -0.000790021  7.86368e-06 -0.000178715 -0.000790021  2.32633e-05 -0.000124437 -0.000790021  8.59185e-05 -9.0876e-05 -0.000790021  -0.000124618 -4.01661e-05 -0.000790021  -4.54887e-05 -4.88345e-05 -0.000790021  4.3885e-05 -8.96626e-05 -0.000790021  5.83554e-05 -5.35942e-05 -0.000790021  0.000124829 -2.49097e-05 -0.000790021  -0.00017877 5.39944e-06 -0.000790021  -8.68031e-05 3.72126e-05 -0.000790021  4.30147e-05 3.68459e-05 -0.000790021  9.49774e-05 1.42895e-05 -0.000790021  0.000187205 1.06479e-05 -0.000790021  -0.000115245 2.45643e-05 -0.000790021  -4.46686e-05 5.694e-05 -0.000790021  2.10644e-05 8.92706e-05 -0.000790021  5.85319e-05 5.42962e-05 -0.000790021  0.00014383 3.54213e-05 -0.000790021  -8.1521e-05 9.062e-05 -0.000790021  -1.63931e-05 0.000129374 -0.000790021  1.79774e-05 0.000185291 -0.000790021  3.8531e-05 0.000140903 -0.000790021  8.96778e-05 8.81964e-05 -0.000790021  
            </DataArray>
         </PointData> 
      </Piece>
   </UnstructuredGrid> 
</VTKFile>
