<?xml version="1.0"?>
<VTKFile type="UnstructuredGrid" version="0.1" byte_order="LittleEndian">
   <UnstructuredGrid>
      <Piece NumberOfPoints="25" NumberOfCells="0" > 
         <Points> 
            <DataArray type="Float64" Name="Position" NumberOfComponents="3" format="ascii"> 
               0  0  15  
               0.75  0  15  
               1.5  0  15  
               2.25  0  15  
               3  0  15  
               0  0.75  15  
               0.75  0.75  15  
               1.5  0.75  15  
               2.25  0.75  15  
               3  0.75  15  
               0  1.5  15  
               0.75  1.5  15  
               1.5  1.5  15  
               2.25  1.5  15  
               3  1.5  15  
               0  2.25  15  
               0.75  2.25  15  
               1.5  2.25  15  
               2.25  2.25  15  
               3  2.25  15  
               0  3  15  
               0.75  3  15  
               1.5  3  15  
               2.25  3  15  
               3  3  15  
            </DataArray>
         </Points> 

         <Cells>
            <DataArray type="Int32" Name="connectivity" NumberOfComponents="1" format="ascii">
               
            </DataArray> 
            <DataArray type="Int32" Name="offsets" NumberOfComponents="1" format="ascii">
               
            </DataArray>
            <DataArray type="UInt8"  Name="types" NumberOfComponents="1" format="ascii">
               
            </DataArray>
         </Cells>
         <PointData Scalars="Rank " Vectors="Displacement Velocity Traction ">
            <DataArray type="UInt32" Name="Rank" NumberOfComponents="1" format="ascii">
               0 0 0 0 0 0 0 0 0 0 0 0 0 0 0 0 0 0 0 0 0 0 0 0 0 
            </DataArray>
            <DataArray type="Float64" Name="Displacement" NumberOfComponents="3" format="ascii">
               1.40565e-06 1.49551e-06 -1.55049e-06  1.35881e-06 -1.00566e-07 -1.44155e-06  1.16724e-06 -1.10172e-07 -1.3147e-06  9.61816e-07 3.59083e-08 -1.40843e-06  8.99225e-07 -1.73635e-07 -1.5564e-06  -7.29577e-08 1.34618e-06 -1.44196e-06  -2.99052e-08 -1.07345e-07 -1.16231e-06  -3.83675e-08 -9.4386e-08 -9.63096e-07  -4.67212e-08 6.31579e-08 -1.18548e-06  -4.14278e-08 -2.77957e-07 -1.39573e-06  3.21105e-07 1.0015e-06 -1.31447e-06  2.51443e-07 -3.19159e-08 -9.63036e-07  -1.13137e-07 -1.74097e-07 -6.6221e-07  -4.81708e-07 1.64849e-07 -9.68912e-07  -6.5987e-07 -4.37182e-07 -1.31677e-06  1.89439e-07 7.41039e-07 -1.40738e-06  1.75495e-07 6.35912e-08 -1.18575e-06  1.75021e-07 -3.6e-07 -9.68618e-07  1.94595e-07 1.91103e-07 -1.16859e-06  1.38744e-07 -3.99476e-07 -1.43986e-06  -7.56896e-07 6.24792e-07 -1.55535e-06  -8.81078e-07 1.21152e-07 -1.3966e-06  -1.29852e-06 -3.75431e-07 -1.31792e-06  -1.52171e-06 1.14365e-07 -1.44109e-06  -1.43963e-06 -3.83069e-07 -1.55205e-06  
            </DataArray>
            <DataArray type="Float64" Name="Velocity" NumberOfComponents="3" format="ascii">
               2.83971e-06 2.47782e-06 -2.15652e-06  2.77416e-06 -8.77279e-08 -2.0862e-06  2.3887e-06 -4.69902e-07 -1.94171e-06  1.99021e-06 5.28563e-08 -2.03164e-06  1.88389e-06 -1.22635e-07 -2.17021e-06  -8.24221e-09 2.23866e-06 -2.08723e-06  7.83077e-08 -7.93834e-08 -1.8042e-06  1.70243e-10 -3.44643e-07 -1.64285e-06  -1.40156e-07 1.35611e-07 -1.86891e-06  -1.6982e-07 -2.93419e-07 -1.98899e-06  5.13678e-07 1.7531e-06 -1.94055e-06  4.38035e-07 -7.60518e-09 -1.64269e-06  -1.51511e-07 -3.99282e-07 -1.37681e-06  -8.06732e-07 3.11672e-07 -1.65466e-06  -1.11909e-06 -5.16228e-07 -1.93894e-06  4.43501e-07 1.35428e-06 -2.02818e-06  4.13125e-07 9.9233e-08 -1.86954e-06  3.25451e-07 -6.0967e-07 -1.65334e-06  3.00772e-07 3.85087e-07 -1.81957e-06  1.98064e-07 -3.44667e-07 -2.07954e-06  -1.50022e-06 1.1659e-06 -2.16739e-06  -1.69482e-06 1.98459e-07 -1.99184e-06  -2.31109e-06 -6.03183e-07 -1.94207e-06  -2.53687e-06 2.6955e-07 -2.08325e-06  -2.34122e-06 -2.36528e-07 -2.1581e-06  
            </DataArray>
            <DataArray type="Float64" Name="Traction" NumberOfComponents="3" format="ascii">
               0 0 0  0 0 0  0 0 0  0 0 0  0 0 0  0 0 0  0 0 0  0 0 0  0 0 0  0 0 0  0 0 0  0 0 0  0 0 0  0 0 0  0 0 0  0 0 0  0 0 0  0 0 0  0 0 0  0 0 0  0 0 0  0 0 0  0 0 0  0 0 0  0 0 0  
            </DataArray>
         </PointData> 
      </Piece>
   </UnstructuredGrid> 
</VTKFile>
