<?xml version="1.0"?>
<VTKFile type="UnstructuredGrid" version="0.1" byte_order="LittleEndian">
   <UnstructuredGrid>
      <Piece NumberOfPoints="25" NumberOfCells="0" > 
         <Points> 
            <DataArray type="Float64" Name="Position" NumberOfComponents="3" format="ascii"> 
               0  0  20  
               0.75  0  20  
               1.5  0  20  
               2.25  0  20  
               3  0  20  
               0  0.75  20  
               0.75  0.75  20  
               1.5  0.75  20  
               2.25  0.75  20  
               3  0.75  20  
               0  1.5  20  
               0.75  1.5  20  
               1.5  1.5  20  
               2.25  1.5  20  
               3  1.5  20  
               0  2.25  20  
               0.75  2.25  20  
               1.5  2.25  20  
               2.25  2.25  20  
               3  2.25  20  
               0  3  20  
               0.75  3  20  
               1.5  3  20  
               2.25  3  20  
               3  3  20  
            </DataArray>
         </Points> 

         <Cells>
            <DataArray type="Int32" Name="connectivity" NumberOfComponents="1" format="ascii">
               
            </DataArray> 
            <DataArray type="Int32" Name="offsets" NumberOfComponents="1" format="ascii">
               
            </DataArray>
            <DataArray type="UInt8"  Name="types" NumberOfComponents="1" format="ascii">
               
            </DataArray>
         </Cells>
         <PointData Scalars="Rank " Vectors="Displacement Velocity Traction ">
            <DataArray type="UInt32" Name="Rank" NumberOfComponents="1" format="ascii">
               0 0 0 0 0 0 0 0 0 0 0 0 0 0 0 0 0 0 0 0 0 0 0 0 0 
            </DataArray>
            <DataArray type="Float64" Name="Displacement" NumberOfComponents="3" format="ascii">
               0.076338 0.0763045 -0.301954  -0.00265017 0.142472 -0.274306  -0.0066188 0.207642 -0.25703  -0.00248677 0.141899 -0.305094  -0.0884416 0.0960906 -0.339509  0.142514 -0.00267686 -0.274324  0.0253289 0.0252967 -0.22798  -0.00293544 0.0392627 -0.153015  -0.0225196 0.022516 -0.220397  -0.141203 0.00785444 -0.304911  0.207675 -0.00665092 -0.257033  0.0392931 -0.0029643 -0.153012  0.00122942 0.00120093 -0.0295288  -0.0378258 0.00300979 -0.152969  -0.20638 0.00731463 -0.256635  0.141916 -0.00252529 -0.305081  0.0225361 -0.0225506 -0.220385  0.00303284 -0.0378512 -0.152963  -0.0246866 -0.0247098 -0.228402  -0.14201 0.00188765 -0.274154  0.096108 -0.0884692 -0.339506  0.00787633 -0.141233 -0.304906  0.00733216 -0.206407 -0.256634  0.00190316 -0.142031 -0.274158  -0.0763315 -0.0763481 -0.302015  
            </DataArray>
            <DataArray type="Float64" Name="Velocity" NumberOfComponents="3" format="ascii">
               1.00035 1.00029 -4.42724  -0.129732 2.05086 -3.95876  -0.0179542 3.26668 -3.80787  0.146067 2.13277 -4.93844  -1.26232 1.2843 -5.69196  2.05091 -0.129757 -3.95877  0.358811 0.35879 -3.59987  -0.0557748 0.448366 -2.30043  -0.293737 0.291807 -3.33885  -2.12677 -0.126633 -4.94245  3.26671 -0.017962 -3.80778  0.448419 -0.0558368 -2.30045  0.0100364 0.00995688 -0.08018  -0.442866 0.0581466 -2.29712  -3.26112 0.0257784 -3.7985  2.13282 0.146007 -4.93832  0.291847 -0.293779 -3.33882  0.0582081 -0.442884 -2.29709  -0.356267 -0.356308 -3.60228  -2.05189 0.123317 -3.95701  1.28435 -1.26239 -5.69182  -0.126588 -2.12681 -4.94239  0.0258128 -3.26114 -3.7984  0.123288 -2.05192 -3.9569  -0.998733 -0.998683 -4.43621  
            </DataArray>
            <DataArray type="Float64" Name="Traction" NumberOfComponents="3" format="ascii">
               -0.899304 -0.90248 -498.621  -0.0148062 -1.69472 -498.621  0.323867 -3.74588 -498.621  0.172799 -2.59159 -498.621  1.03196 -1.2502 -498.621  -1.69335 -0.0148202 -498.621  -0.584926 -0.584655 -498.621  0.308926 -1.093 -498.621  0.662984 -0.660662 -498.621  2.54608 -0.309626 -498.621  -3.74452 0.323871 -498.621  -1.09312 0.308703 -498.621  0.625392 0.625153 -498.621  1.07005 0.415526 -498.621  3.72281 -0.104803 -498.621  -2.58869 0.173287 -498.621  -0.661145 0.662551 -498.621  0.415765 1.0701 -498.621  0.579282 0.579225 -498.621  1.68002 0.032832 -498.621  -1.24624 1.03667 -498.621  -0.310303 2.54913 -498.621  -0.105224 3.72525 -498.621  0.0322367 1.68223 -498.621  0.895484 0.900075 -498.621  
            </DataArray>
         </PointData> 
      </Piece>
   </UnstructuredGrid> 
</VTKFile>
