<?xml version="1.0"?>
<VTKFile type="UnstructuredGrid" version="0.1" byte_order="LittleEndian">
   <UnstructuredGrid>
      <Piece NumberOfPoints="25" NumberOfCells="0" > 
         <Points> 
            <DataArray type="Float64" Name="Position" NumberOfComponents="3" format="ascii"> 
               0  0  20  
               0.75  0  20  
               1.5  0  20  
               2.25  0  20  
               3  0  20  
               0  0.75  20  
               0.75  0.75  20  
               1.5  0.75  20  
               2.25  0.75  20  
               3  0.75  20  
               0  1.5  20  
               0.75  1.5  20  
               1.5  1.5  20  
               2.25  1.5  20  
               3  1.5  20  
               0  2.25  20  
               0.75  2.25  20  
               1.5  2.25  20  
               2.25  2.25  20  
               3  2.25  20  
               0  3  20  
               0.75  3  20  
               1.5  3  20  
               2.25  3  20  
               3  3  20  
            </DataArray>
         </Points> 

         <Cells>
            <DataArray type="Int32" Name="connectivity" NumberOfComponents="1" format="ascii">
               
            </DataArray> 
            <DataArray type="Int32" Name="offsets" NumberOfComponents="1" format="ascii">
               
            </DataArray>
            <DataArray type="UInt8"  Name="types" NumberOfComponents="1" format="ascii">
               
            </DataArray>
         </Cells>
         <PointData Scalars="Rank " Vectors="Displacement Velocity Traction ">
            <DataArray type="UInt32" Name="Rank" NumberOfComponents="1" format="ascii">
               0 0 0 0 0 0 0 0 0 0 0 0 0 0 0 0 0 0 0 0 0 0 0 0 0 
            </DataArray>
            <DataArray type="Float64" Name="Displacement" NumberOfComponents="3" format="ascii">
               2.22661e-05 2.14042e-05 -8.63873e-05  -8.06188e-07 4.03801e-05 -7.90292e-05  -1.16349e-05 4.97636e-05 -7.14191e-05  -8.30484e-06 3.39445e-05 -7.648e-05  -2.61514e-05 3.85233e-05 -8.41824e-05  4.194e-05 -1.66351e-06 -8.00481e-05  1.25013e-05 1.09024e-05 -6.22935e-05  -1.15555e-06 1.81888e-05 -5.0157e-05  -7.20666e-06 9.22957e-06 -6.33751e-05  -3.16257e-05 1.69089e-05 -7.50666e-05  5.20959e-05 -1.2694e-05 -7.26535e-05  2.03541e-05 -2.07816e-06 -5.02162e-05  3.13231e-06 1.86521e-06 -3.17448e-05  -1.43787e-05 3.42571e-06 -5.06517e-05  -4.65162e-05 1.4151e-05 -7.12455e-05  3.61957e-05 -1.05884e-05 -7.73777e-05  1.13069e-05 -8.31629e-06 -6.31561e-05  4.98546e-06 -1.52816e-05 -5.04937e-05  -7.83121e-06 -9.03295e-06 -6.2566e-05  -3.79591e-05 2.73131e-06 -7.83083e-05  4.00117e-05 -2.89688e-05 -8.61376e-05  1.85035e-05 -3.33042e-05 -7.56662e-05  1.5253e-05 -4.76003e-05 -7.1724e-05  3.5017e-06 -3.90149e-05 -7.8991e-05  -1.99674e-05 -2.08968e-05 -8.48228e-05  
            </DataArray>
            <DataArray type="Float64" Name="Velocity" NumberOfComponents="3" format="ascii">
               3.65685e-05 3.75425e-05 -0.00013971  -6.89919e-07 6.3793e-05 -0.000132938  -2.15388e-05 7.39846e-05 -0.000123638  -1.77791e-05 5.22369e-05 -0.000130884  -4.12977e-05 6.59007e-05 -0.000136523  6.40109e-05 5.30693e-07 -0.000133716  2.02045e-05 2.00417e-05 -0.000112946  -5.1293e-06 3.0891e-05 -9.9107e-05  -1.70834e-05 1.88214e-05 -0.000117258  -5.00787e-05 3.27829e-05 -0.000126946  7.52646e-05 -2.0626e-05 -0.000125074  3.18439e-05 -4.40593e-06 -9.93667e-05  1.6012e-06 1.6569e-06 -7.57127e-05  -2.62125e-05 5.03293e-06 -9.97197e-05  -6.88064e-05 2.11306e-05 -0.000121761  5.4358e-05 -1.89935e-05 -0.000132427  2.02293e-05 -1.72631e-05 -0.000117269  5.59175e-06 -2.67896e-05 -9.97172e-05  -1.62003e-05 -1.73358e-05 -0.000113836  -5.85145e-05 -2.35342e-07 -0.000130433  6.8075e-05 -4.35891e-05 -0.000139694  3.48159e-05 -5.12701e-05 -0.00012794  2.19201e-05 -7.00959e-05 -0.000122947  -2.96482e-07 -6.03384e-05 -0.000131816  -3.58387e-05 -3.6068e-05 -0.000135758  
            </DataArray>
            <DataArray type="Float64" Name="Traction" NumberOfComponents="3" format="ascii">
               -0.000212836 -0.000197904 -0.0015654  -8.18922e-05 -0.000311072 -0.0015654  5.01817e-05 -0.000395194 -0.0015654  6.40315e-05 -0.000271806 -0.0015654  0.000184769 -0.000251751 -0.0015654  -0.000319188 -7.15606e-05 -0.0015654  -0.000126882 -0.000123632 -0.0015654  9.81197e-05 -0.000207062 -0.0015654  0.00012664 -0.000130821 -0.0015654  0.000254114 -9.89765e-05 -0.0015654  -0.00040542 5.13659e-05 -0.0015654  -0.000211019 9.25978e-05 -0.0015654  8.70152e-05 8.21036e-05 -0.0015654  0.000199697 2.49831e-05 -0.0015654  0.000384926 -1.42098e-06 -0.0015654  -0.000272113 7.73883e-05 -0.0015654  -0.000126422 0.000131709 -0.0015654  3.20042e-05 0.000199496 -0.0015654  0.000125506 0.000126129 -0.0015654  0.000312715 6.68584e-05 -0.0015654  -0.0002519 0.000207526 -0.0015654  -9.48447e-05 0.000270952 -0.0015654  8.24675e-06 0.00039349 -0.0015654  6.94574e-05 0.000319738 -0.0015654  0.000191938 0.000195861 -0.0015654  
            </DataArray>
         </PointData> 
      </Piece>
   </UnstructuredGrid> 
</VTKFile>
