<?xml version="1.0"?>
<VTKFile type="UnstructuredGrid" version="0.1" byte_order="LittleEndian">
   <UnstructuredGrid>
      <Piece NumberOfPoints="25" NumberOfCells="0" > 
         <Points> 
            <DataArray type="Float64" Name="Position" NumberOfComponents="3" format="ascii"> 
               0  0  15  
               0.75  0  15  
               1.5  0  15  
               2.25  0  15  
               3  0  15  
               0  0.75  15  
               0.75  0.75  15  
               1.5  0.75  15  
               2.25  0.75  15  
               3  0.75  15  
               0  1.5  15  
               0.75  1.5  15  
               1.5  1.5  15  
               2.25  1.5  15  
               3  1.5  15  
               0  2.25  15  
               0.75  2.25  15  
               1.5  2.25  15  
               2.25  2.25  15  
               3  2.25  15  
               0  3  15  
               0.75  3  15  
               1.5  3  15  
               2.25  3  15  
               3  3  15  
            </DataArray>
         </Points> 

         <Cells>
            <DataArray type="Int32" Name="connectivity" NumberOfComponents="1" format="ascii">
               
            </DataArray> 
            <DataArray type="Int32" Name="offsets" NumberOfComponents="1" format="ascii">
               
            </DataArray>
            <DataArray type="UInt8"  Name="types" NumberOfComponents="1" format="ascii">
               
            </DataArray>
         </Cells>
         <PointData Scalars="Rank " Vectors="Displacement Velocity Traction ">
            <DataArray type="UInt32" Name="Rank" NumberOfComponents="1" format="ascii">
               0 0 0 0 0 0 0 0 0 0 0 0 0 0 0 0 0 0 0 0 0 0 0 0 0 
            </DataArray>
            <DataArray type="Float64" Name="Displacement" NumberOfComponents="3" format="ascii">
               0.00186504 0.00214606 -0.00565492  0.00168386 0.000191706 -0.00561486  0.00118854 -0.00050357 -0.00541126  0.000656247 -0.000530023 -0.00565165  0.000431233 -0.00161564 -0.00568531  -0.000160365 0.0019634 -0.00560459  -0.000222383 0.00012424 -0.00513561  -0.000623336 -0.000364818 -0.00475071  -0.00098913 -0.000558598 -0.0053289  -0.000992089 -0.00189968 -0.0055416  -0.000833792 0.00147249 -0.00539601  -0.00069261 -0.000292727 -0.00474891  -0.000936998 -0.00061975 -0.00402991  -0.00118121 -0.000946302 -0.00477843  -0.00103352 -0.00250727 -0.00540017  -0.000891705 0.000942303 -0.00563546  -0.00091385 -0.000670658 -0.00532757  -0.00128948 -0.000867797 -0.00477731  -0.00168702 -0.00135163 -0.00518612  -0.0017503 -0.00301243 -0.00561003  -0.00202061 0.000715125 -0.00564918  -0.00229599 -0.000678448 -0.00552668  -0.00288769 -0.000723043 -0.005385  -0.00338062 -0.00141935 -0.00559678  -0.00355359 -0.00318898 -0.00562257  
            </DataArray>
            <DataArray type="Float64" Name="Velocity" NumberOfComponents="3" format="ascii">
               0.000262834 0.000419392 -0.00644635  0.000160629 7.92874e-05 -0.00626946  6.3367e-05 -0.000102842 -0.00597903  1.41382e-05 -0.000179497 -0.00629344  -5.21769e-05 -0.000313712 -0.00643185  -5.95153e-05 0.000315885 -0.00627629  -0.00016605 -2.88776e-05 -0.00556722  -0.000315237 -0.000161298 -0.00499152  -0.000427112 -0.000258604 -0.00574742  -0.000480045 -0.00045608 -0.00618304  -0.000232087 0.000212526 -0.00597889  -0.000287775 -0.000180651 -0.00498833  -0.000381249 -0.000255889 -0.00399104  -0.000487337 -0.000363477 -0.00502383  -0.000531749 -0.000629871 -0.00596126  -0.000311467 0.000157205 -0.00628642  -0.000389855 -0.000293572 -0.00574145  -0.000497826 -0.000360445 -0.00502102  -0.000636085 -0.000495667 -0.00562259  -0.000736005 -0.000787629 -0.00625588  -0.000455861 8.91826e-05 -0.00642288  -0.00059949 -0.000344139 -0.00617807  -0.000778683 -0.000399459 -0.0059597  -0.000943341 -0.000590076 -0.00625898  -0.00105879 -0.000899667 -0.00639113  
            </DataArray>
            <DataArray type="Float64" Name="Traction" NumberOfComponents="3" format="ascii">
               0.0401097 0.041325 -0.0928968  0.0111414 0.0465934 -0.0928968  -0.0102105 0.0473542 -0.0928968  -0.0337516 0.0482942 -0.0928968  -0.059987 0.051688 -0.0928968  0.0469933 0.0126671 -0.0928968  0.0185231 0.0197882 -0.0928968  0.00019037 0.0194242 -0.0928968  -0.0252361 0.0202764 -0.0928968  -0.0527706 0.027066 -0.0928968  0.047933 -0.00904545 -0.0928968  0.0177597 0.00124976 -0.0928968  0.000480065 0.00168499 -0.0928968  -0.024436 7.17532e-05 -0.0928968  -0.0512481 0.00687767 -0.0928968  0.0488396 -0.0331066 -0.0928968  0.0193454 -0.0245009 -0.0928968  -0.000844438 -0.0235366 -0.0928968  -0.024977 -0.0241779 -0.0928968  -0.0473871 -0.018373 -0.0928968  0.0526029 -0.0603573 -0.0928968  0.026672 -0.0519967 -0.0928968  0.00640426 -0.0498275 -0.0928968  -0.0189249 -0.0466685 -0.0928968  -0.0387024 -0.038069 -0.0928968  
            </DataArray>
         </PointData> 
      </Piece>
   </UnstructuredGrid> 
</VTKFile>
