<?xml version="1.0"?>
<VTKFile type="UnstructuredGrid" version="0.1" byte_order="LittleEndian">
   <UnstructuredGrid>
      <Piece NumberOfPoints="25" NumberOfCells="0" > 
         <Points> 
            <DataArray type="Float64" Name="Position" NumberOfComponents="3" format="ascii"> 
               0  0  20  
               0.75  0  20  
               1.5  0  20  
               2.25  0  20  
               3  0  20  
               0  0.75  20  
               0.75  0.75  20  
               1.5  0.75  20  
               2.25  0.75  20  
               3  0.75  20  
               0  1.5  20  
               0.75  1.5  20  
               1.5  1.5  20  
               2.25  1.5  20  
               3  1.5  20  
               0  2.25  20  
               0.75  2.25  20  
               1.5  2.25  20  
               2.25  2.25  20  
               3  2.25  20  
               0  3  20  
               0.75  3  20  
               1.5  3  20  
               2.25  3  20  
               3  3  20  
            </DataArray>
         </Points> 

         <Cells>
            <DataArray type="Int32" Name="connectivity" NumberOfComponents="1" format="ascii">
               
            </DataArray> 
            <DataArray type="Int32" Name="offsets" NumberOfComponents="1" format="ascii">
               
            </DataArray>
            <DataArray type="UInt8"  Name="types" NumberOfComponents="1" format="ascii">
               
            </DataArray>
         </Cells>
         <PointData Scalars="Rank " Vectors="Displacement Velocity Traction ">
            <DataArray type="UInt32" Name="Rank" NumberOfComponents="1" format="ascii">
               0 0 0 0 0 0 0 0 0 0 0 0 0 0 0 0 0 0 0 0 0 0 0 0 0 
            </DataArray>
            <DataArray type="Float64" Name="Displacement" NumberOfComponents="3" format="ascii">
               -1.12816e-06 -1.03976e-06 -1.5437e-07  6.87051e-07 -2.22342e-06 -1.3244e-06  9.62196e-07 -2.54815e-06 -2.06594e-06  8.1386e-07 -1.61432e-06 -1.91478e-06  2.16925e-06 -1.65651e-06 -2.27198e-07  -2.50604e-06 7.35643e-07 -1.21778e-06  -5.02946e-07 -3.65735e-07 -3.05884e-06  -2.31769e-07 -7.4532e-07 -3.97787e-06  7.79152e-08 -1.52348e-07 -3.40729e-06  1.76231e-06 -4.83624e-07 -1.74457e-06  -2.76317e-06 1.08721e-06 -1.9581e-06  -8.71434e-07 -1.31881e-07 -3.98636e-06  -3.35212e-07 -2.366e-07 -5.09457e-06  3.47145e-07 -2.09796e-08 -4.00929e-06  2.36312e-06 -9.23578e-07 -2.03708e-06  -1.79048e-06 8.73067e-07 -1.8134e-06  -2.94211e-07 1.57778e-07 -3.41798e-06  -1.31917e-07 4.88709e-07 -4.02765e-06  1.48873e-07 3.42239e-07 -3.09493e-06  1.99974e-06 -6.54059e-07 -1.39334e-06  -1.90873e-06 2.19161e-06 -1.22429e-07  -7.21492e-07 1.85014e-06 -1.74705e-06  -1.10465e-06 2.50871e-06 -2.01102e-06  -8.96628e-07 2.19164e-06 -1.29958e-06  7.03324e-07 9.8231e-07 -2.92474e-07  
            </DataArray>
            <DataArray type="Float64" Name="Velocity" NumberOfComponents="3" format="ascii">
               -2.49217e-06 -2.61182e-06 5.39274e-06  2.92199e-07 -3.8513e-06 5.13054e-06  2.04513e-06 -3.50729e-06 4.90941e-06  2.00671e-06 -2.89219e-06 4.97472e-06  3.27674e-06 -4.56336e-06 5.26695e-06  -3.88451e-06 1.83262e-07 5.19429e-06  -1.45221e-06 -1.44254e-06 4.32384e-06  3.75388e-07 -1.93884e-06 4.25891e-06  1.38517e-06 -1.5668e-06 4.67788e-06  2.69358e-06 -2.61063e-06 4.57115e-06  -3.58859e-06 2.00978e-06 5.01965e-06  -2.00686e-06 3.58526e-07 4.2791e-06  -8.93999e-08 -8.86403e-09 3.72918e-06  1.56498e-06 -2.97216e-07 4.28396e-06  2.99711e-06 -1.75197e-06 4.66065e-06  -3.03202e-06 2.03551e-06 5.06906e-06  -1.69096e-06 1.44871e-06 4.66639e-06  -4.58411e-07 1.77164e-06 4.26258e-06  1.07145e-06 1.36518e-06 4.41456e-06  3.21349e-06 -8.58076e-08 4.85919e-06  -4.82356e-06 3.35175e-06 5.45801e-06  -2.91142e-06 2.86447e-06 4.64893e-06  -1.99758e-06 3.32488e-06 4.80568e-06  -2.99977e-07 3.60174e-06 5.06495e-06  2.21201e-06 2.47701e-06 4.95668e-06  
            </DataArray>
            <DataArray type="Float64" Name="Traction" NumberOfComponents="3" format="ascii">
               6.61495e-06 7.00859e-06 5.04885e-05  -5.67001e-06 2.31639e-05 5.04885e-05  -7.18068e-06 2.46897e-05 5.04885e-05  -1.20602e-05 1.82346e-05 5.04885e-05  -2.69772e-05 2.25383e-05 5.04885e-05  2.57207e-05 -4.30493e-06 5.04885e-05  9.47729e-06 8.32846e-06 5.04885e-05  7.08047e-07 1.05117e-05 5.04885e-05  -6.68229e-06 5.89274e-06 5.04885e-05  -2.18693e-05 1.02208e-05 5.04885e-05  2.50214e-05 -6.65533e-06 5.04885e-05  1.00894e-05 1.29116e-07 5.04885e-05  -2.21316e-06 -1.40089e-06 5.04885e-05  -8.90406e-06 -1.60823e-06 5.04885e-05  -2.41941e-05 7.00317e-06 5.04885e-05  1.92125e-05 -1.20652e-05 5.04885e-05  5.90178e-06 -6.75077e-06 5.04885e-05  -3.2518e-06 -8.77152e-06 5.04885e-05  -9.04878e-06 -7.71486e-06 5.04885e-05  -2.31785e-05 2.60989e-06 5.04885e-05  2.38819e-05 -2.69421e-05 5.04885e-05  1.04746e-05 -2.14986e-05 5.04885e-05  5.47454e-06 -2.40129e-05 5.04885e-05  1.73808e-06 -2.19427e-05 5.04885e-05  -9.90941e-06 -9.83011e-06 5.04885e-05  
            </DataArray>
         </PointData> 
      </Piece>
   </UnstructuredGrid> 
</VTKFile>
