<?xml version="1.0"?>
<VTKFile type="UnstructuredGrid" version="0.1" byte_order="LittleEndian">
   <UnstructuredGrid>
      <Piece NumberOfPoints="25" NumberOfCells="0" > 
         <Points> 
            <DataArray type="Float64" Name="Position" NumberOfComponents="3" format="ascii"> 
               0  0  20  
               0.75  0  20  
               1.5  0  20  
               2.25  0  20  
               3  0  20  
               0  0.75  20  
               0.75  0.75  20  
               1.5  0.75  20  
               2.25  0.75  20  
               3  0.75  20  
               0  1.5  20  
               0.75  1.5  20  
               1.5  1.5  20  
               2.25  1.5  20  
               3  1.5  20  
               0  2.25  20  
               0.75  2.25  20  
               1.5  2.25  20  
               2.25  2.25  20  
               3  2.25  20  
               0  3  20  
               0.75  3  20  
               1.5  3  20  
               2.25  3  20  
               3  3  20  
            </DataArray>
         </Points> 

         <Cells>
            <DataArray type="Int32" Name="connectivity" NumberOfComponents="1" format="ascii">
               
            </DataArray> 
            <DataArray type="Int32" Name="offsets" NumberOfComponents="1" format="ascii">
               
            </DataArray>
            <DataArray type="UInt8"  Name="types" NumberOfComponents="1" format="ascii">
               
            </DataArray>
         </Cells>
         <PointData Scalars="Rank " Vectors="Displacement Velocity Traction ">
            <DataArray type="UInt32" Name="Rank" NumberOfComponents="1" format="ascii">
               0 0 0 0 0 0 0 0 0 0 0 0 0 0 0 0 0 0 0 0 0 0 0 0 0 
            </DataArray>
            <DataArray type="Float64" Name="Displacement" NumberOfComponents="3" format="ascii">
               4.08177e-07 5.01232e-07 -3.5065e-06  3.5206e-07 4.00192e-07 -4.20908e-06  -3.4334e-07 1.52896e-07 -4.57846e-06  -3.7731e-07 3.88694e-07 -4.53705e-06  -6.67333e-08 1.15938e-06 -3.50982e-06  2.27147e-07 4.07274e-07 -4.16359e-06  3.66201e-07 4.46056e-07 -4.98925e-06  -3.65215e-07 4.8861e-07 -5.52723e-06  -6.24948e-07 6.6579e-07 -5.4004e-06  -1.7777e-07 9.92458e-07 -4.23886e-06  3.27713e-08 -2.57798e-07 -4.53647e-06  4.32932e-07 -2.95378e-07 -5.53704e-06  -1.85782e-07 -1.55334e-07 -5.97642e-06  -5.99392e-07 1.69527e-07 -5.56835e-06  -5.87139e-08 2.90829e-07 -4.47378e-06  3.00785e-07 -3.55543e-07 -4.48791e-06  6.09135e-07 -5.99824e-07 -5.4035e-06  1.58961e-07 -5.77471e-07 -5.56857e-06  -4.49179e-07 -4.19978e-07 -5.05802e-06  -3.22167e-07 -3.92895e-07 -4.17163e-06  1.05587e-06 -8.22448e-08 -3.48733e-06  9.25007e-07 -1.81884e-07 -4.26833e-06  2.61223e-07 -8.00229e-08 -4.4997e-06  -4.80279e-07 -3.38154e-07 -4.17466e-06  -6.19612e-07 -5.30624e-07 -3.46358e-06  
            </DataArray>
            <DataArray type="Float64" Name="Velocity" NumberOfComponents="3" format="ascii">
               -1.43243e-06 -1.36234e-06 2.99649e-06  5.10425e-07 -2.74988e-06 2.1572e-06  1.24449e-06 -3.1698e-06 1.50238e-06  1.04052e-06 -2.11743e-06 1.70419e-06  2.34436e-06 -2.5793e-06 2.94132e-06  -2.95161e-06 5.59748e-07 2.23537e-06  -7.61011e-07 -6.5956e-07 6.79716e-07  -6.33161e-09 -1.18167e-06 -1.17181e-07  4.58482e-07 -5.52877e-07 5.38765e-07  2.15572e-06 -1.16811e-06 1.74382e-06  -3.30427e-06 1.33702e-06 1.56411e-06  -1.26959e-06 5.71287e-08 -1.27286e-07  -2.48019e-07 -1.75657e-07 -1.17762e-06  8.43799e-07 -1.62769e-07 -1.19336e-07  2.95735e-06 -1.24225e-06 1.52159e-06  -2.20525e-06 1.0868e-06 1.75468e-06  -6.3847e-07 5.20067e-07 5.32616e-07  -2.45354e-07 9.41648e-07 -1.38204e-07  4.81549e-07 6.11174e-07 6.79617e-07  2.56817e-06 -4.80833e-07 2.1213e-06  -2.71775e-06 2.3603e-06 2.98672e-06  -1.31364e-06 2.21671e-06 1.74311e-06  -1.37668e-06 3.06562e-06 1.53114e-06  -6.47433e-07 2.72501e-06 2.17974e-06  1.18318e-06 1.38707e-06 2.91734e-06  
            </DataArray>
            <DataArray type="Float64" Name="Traction" NumberOfComponents="3" format="ascii">
               -2.07991e-06 -8.21442e-07 5.77126e-05  -3.45351e-06 2.50672e-06 5.77126e-05  9.22388e-07 4.82108e-06 5.77126e-05  -2.80882e-06 3.83483e-06 5.77126e-05  -9.28709e-06 -2.77215e-07 5.77126e-05  3.2763e-06 -1.47492e-06 5.77126e-05  8.65488e-07 9.50114e-07 5.77126e-05  3.46439e-06 3.01249e-07 5.77126e-05  -1.87685e-07 -1.16133e-06 5.77126e-05  -7.90566e-06 -1.59574e-06 5.77126e-05  4.36943e-06 2.21305e-06 5.77126e-05  -3.99825e-07 3.47226e-06 5.77126e-05  1.87042e-07 6.13871e-07 5.77126e-05  1.32366e-07 -2.42995e-06 5.77126e-05  -5.86001e-06 -2.19354e-07 5.77126e-05  3.69339e-06 -1.66129e-06 5.77126e-05  -1.68419e-06 1.52517e-07 5.77126e-05  -3.4322e-06 3.76042e-07 5.77126e-05  -2.09559e-06 -9.64859e-07 5.77126e-05  -4.56817e-06 1.05513e-06 5.77126e-05  4.24618e-07 -7.8496e-06 5.77126e-05  -1.53796e-06 -7.12662e-06 5.77126e-05  -7.56922e-07 -5.25077e-06 5.77126e-05  8.04968e-07 -2.91934e-06 5.77126e-05  -1.09561e-06 -7.18786e-07 5.77126e-05  
            </DataArray>
         </PointData> 
      </Piece>
   </UnstructuredGrid> 
</VTKFile>
