<?xml version="1.0"?>
<VTKFile type="UnstructuredGrid" version="0.1" byte_order="LittleEndian">
   <UnstructuredGrid>
      <Piece NumberOfPoints="25" NumberOfCells="0" > 
         <Points> 
            <DataArray type="Float64" Name="Position" NumberOfComponents="3" format="ascii"> 
               0  0  15  
               0.75  0  15  
               1.5  0  15  
               2.25  0  15  
               3  0  15  
               0  0.75  15  
               0.75  0.75  15  
               1.5  0.75  15  
               2.25  0.75  15  
               3  0.75  15  
               0  1.5  15  
               0.75  1.5  15  
               1.5  1.5  15  
               2.25  1.5  15  
               3  1.5  15  
               0  2.25  15  
               0.75  2.25  15  
               1.5  2.25  15  
               2.25  2.25  15  
               3  2.25  15  
               0  3  15  
               0.75  3  15  
               1.5  3  15  
               2.25  3  15  
               3  3  15  
            </DataArray>
         </Points> 

         <Cells>
            <DataArray type="Int32" Name="connectivity" NumberOfComponents="1" format="ascii">
               
            </DataArray> 
            <DataArray type="Int32" Name="offsets" NumberOfComponents="1" format="ascii">
               
            </DataArray>
            <DataArray type="UInt8"  Name="types" NumberOfComponents="1" format="ascii">
               
            </DataArray>
         </Cells>
         <PointData Scalars="Rank " Vectors="Displacement Velocity Traction ">
            <DataArray type="UInt32" Name="Rank" NumberOfComponents="1" format="ascii">
               0 0 0 0 0 0 0 0 0 0 0 0 0 0 0 0 0 0 0 0 0 0 0 0 0 
            </DataArray>
            <DataArray type="Float64" Name="Displacement" NumberOfComponents="3" format="ascii">
               7.07168e-11 7.43013e-11 -2.26324e-10  7.05575e-11 -1.2957e-11 -2.13303e-10  3.52397e-11 1.59552e-11 -2.00666e-10  7.57698e-12 -5.04327e-12 -2.13315e-10  1.72998e-11 -2.11776e-11 -2.26297e-10  -1.18089e-11 8.09882e-11 -2.13301e-10  -1.66361e-11 -1.95943e-11 -1.7854e-10  -7.97904e-12 2.83635e-11 -1.4432e-10  1.15783e-11 -1.10618e-12 -1.78542e-10  1.74446e-11 -4.25034e-12 -2.13308e-10  2.01804e-11 3.1763e-11 -2.00665e-10  3.16657e-11 -5.57735e-12 -1.44317e-10  -1.82063e-12 -1.61146e-12 -8.87548e-11  -4.61688e-11 1.84033e-11 -1.44316e-10  -4.93375e-11 -4.95712e-11 -2.00666e-10  -6.02631e-13 8.82663e-12 -2.13314e-10  -4.2498e-12 1.21319e-11 -1.78542e-10  1.81329e-11 -4.29164e-11 -1.44318e-10  2.27233e-11 1.52827e-11 -1.78539e-10  9.15892e-14 -7.3401e-11 -2.13304e-10  -3.02851e-11 1.35285e-11 -2.26297e-10  -4.69199e-12 1.12399e-11 -2.13313e-10  -6.53011e-11 -3.38275e-11 -2.00665e-10  -9.92685e-11 -5.42611e-12 -2.13307e-10  -4.93825e-11 -4.86322e-11 -2.26312e-10  
            </DataArray>
            <DataArray type="Float64" Name="Velocity" NumberOfComponents="3" format="ascii">
               2.15815e-09 2.27805e-09 -1.92028e-08  2.11704e-09 -3.99038e-10 -1.74022e-08  1.06897e-09 5.10538e-10 -1.56236e-08  2.50019e-10 -1.44623e-10 -1.74026e-08  4.87799e-10 -5.92979e-10 -1.92017e-08  -3.59945e-10 2.43185e-09 -1.7402e-08  -4.98948e-10 -5.87143e-10 -1.25158e-08  -2.37823e-10 8.36711e-10 -7.66205e-09  3.47457e-10 -3.19485e-11 -1.25158e-08  5.17847e-10 -1.53569e-10 -1.74022e-08  6.43942e-10 9.68415e-10 -1.56232e-08  9.3852e-10 -1.66783e-10 -7.66176e-09  -5.89066e-11 -4.61401e-11 2.53457e-10  -1.37988e-09 5.44345e-10 -7.66173e-09  -1.50792e-09 -1.49603e-09 -1.56232e-08  -1.96084e-11 2.84387e-10 -1.74024e-08  -1.22345e-10 3.625e-10 -1.25158e-08  5.39063e-10 -1.28085e-09 -7.66203e-09  6.81575e-10 4.61997e-10 -1.25157e-08  2.0358e-11 -2.18461e-09 -1.74021e-08  -8.62826e-10 3.80103e-10 -1.92017e-08  -1.72967e-10 3.39987e-10 -1.74025e-08  -1.97169e-09 -1.04317e-09 -1.56236e-08  -2.96893e-09 -1.5725e-10 -1.74024e-08  -1.57267e-09 -1.52766e-09 -1.92024e-08  
            </DataArray>
            <DataArray type="Float64" Name="Traction" NumberOfComponents="3" format="ascii">
               1.21988e-07 1.26441e-07 -3.99019e-06  -1.96294e-08 1.23973e-07 -3.99019e-06  4.26047e-09 7.25306e-08 -3.99019e-06  4.9646e-09 9.17846e-08 -3.99019e-06  -8.69341e-08 9.92408e-08 -3.99019e-06  9.94228e-08 -2.55791e-08 -3.99019e-06  -1.8475e-08 -2.41385e-08 -3.99019e-06  -5.89757e-09 -2.31232e-08 -3.99019e-06  3.09899e-08 -8.09238e-09 -3.99019e-06  -1.49278e-07 1.12156e-08 -3.99019e-06  8.76993e-08 1.95389e-09 -3.99019e-06  -1.89573e-08 -3.1237e-09 -3.99019e-06  -1.31596e-08 -8.11996e-09 -3.99019e-06  5.57947e-08 2.5613e-11 -3.99019e-06  -2.03968e-07 3.16473e-09 -3.99019e-06  1.07072e-07 1.86407e-08 -3.99019e-06  -1.33555e-08 3.02609e-08 -3.99019e-06  -1.99829e-09 4.1723e-08 -3.99019e-06  2.43209e-08 1.32496e-08 -3.99019e-06  -1.38347e-07 -1.61567e-08 -3.99019e-06  1.00422e-07 -9.21023e-08 -3.99019e-06  -4.12867e-09 -1.39448e-07 -3.99019e-06  4.99091e-09 -1.43813e-07 -3.99019e-06  -8.47637e-09 -9.61247e-08 -3.99019e-06  -7.53668e-08 -7.6383e-08 -3.99019e-06  
            </DataArray>
         </PointData> 
      </Piece>
   </UnstructuredGrid> 
</VTKFile>
