<?xml version="1.0"?>
<VTKFile type="UnstructuredGrid" version="0.1" byte_order="LittleEndian">
   <UnstructuredGrid>
      <Piece NumberOfPoints="25" NumberOfCells="0" > 
         <Points> 
            <DataArray type="Float64" Name="Position" NumberOfComponents="3" format="ascii"> 
               0  0  15  
               0.75  0  15  
               1.5  0  15  
               2.25  0  15  
               3  0  15  
               0  0.75  15  
               0.75  0.75  15  
               1.5  0.75  15  
               2.25  0.75  15  
               3  0.75  15  
               0  1.5  15  
               0.75  1.5  15  
               1.5  1.5  15  
               2.25  1.5  15  
               3  1.5  15  
               0  2.25  15  
               0.75  2.25  15  
               1.5  2.25  15  
               2.25  2.25  15  
               3  2.25  15  
               0  3  15  
               0.75  3  15  
               1.5  3  15  
               2.25  3  15  
               3  3  15  
            </DataArray>
         </Points> 

         <Cells>
            <DataArray type="Int32" Name="connectivity" NumberOfComponents="1" format="ascii">
               
            </DataArray> 
            <DataArray type="Int32" Name="offsets" NumberOfComponents="1" format="ascii">
               
            </DataArray>
            <DataArray type="UInt8"  Name="types" NumberOfComponents="1" format="ascii">
               
            </DataArray>
         </Cells>
         <PointData Scalars="Rank " Vectors="Displacement Velocity Traction ">
            <DataArray type="UInt32" Name="Rank" NumberOfComponents="1" format="ascii">
               0 0 0 0 0 0 0 0 0 0 0 0 0 0 0 0 0 0 0 0 0 0 0 0 0 
            </DataArray>
            <DataArray type="Float64" Name="Displacement" NumberOfComponents="3" format="ascii">
               0.00190669 0.00225914 -0.0106059  0.00165499 0.000266423 -0.0103553  0.00113702 -0.000485031 -0.00988076  0.000628701 -0.000588411 -0.0103981  0.000369694 -0.00164504 -0.0106191  -0.000147885 0.00200547 -0.0103511  -0.000301109 0.000107122 -0.00922297  -0.000776956 -0.000423079 -0.00829144  -0.00118742 -0.000687722 -0.0095285  -0.00124105 -0.0020213 -0.0102162  -0.000873427 0.00148914 -0.00986829  -0.000807989 -0.00038558 -0.00828802  -0.00110273 -0.00072835 -0.00666081  -0.00140827 -0.00111436 -0.00834028  -0.00132668 -0.00270151 -0.00985671  -0.00100923 0.000980158 -0.0103806  -0.00110201 -0.000808519 -0.00952375  -0.00151845 -0.00103702 -0.00833764  -0.00198284 -0.00158388 -0.00930931  -0.00213121 -0.00327879 -0.010338  -0.00211333 0.000718256 -0.0105843  -0.00248178 -0.00086576 -0.010201  -0.00314951 -0.000955775 -0.0098435  -0.00371825 -0.00173432 -0.010329  -0.00397177 -0.00353457 -0.0105326  
            </DataArray>
            <DataArray type="Float64" Name="Velocity" NumberOfComponents="3" format="ascii">
               -0.000149107 -9.22688e-06 -0.0161226  -0.000369126 0.000275541 -0.0152539  -0.000345175 0.000248742 -0.0142501  -0.000151349 -3.01955e-05 -0.015251  -0.00023561 0.000310745 -0.0160675  0.000155133 -0.000230544 -0.0152722  -0.00016143 -4.21245e-05 -0.0128377  -0.000325356 -6.38293e-05 -0.0107744  -0.000392574 -0.000285464 -0.0131364  -0.000582893 3.75804e-05 -0.0150548  0.00013665 -0.000211948 -0.0142623  -0.000174659 -0.000206774 -0.010771  -0.000290398 -0.000177917 -0.00741759  -0.000446945 -0.000331875 -0.0108327  -0.000727357 -8.4024e-05 -0.0142143  -0.000143934 -2.29505e-05 -0.0152533  -0.000399821 -0.000273885 -0.0131284  -0.000451378 -0.000332831 -0.0108293  -0.000590665 -0.000465952 -0.0129363  -0.000886776 -0.000225481 -0.0152136  0.000188321 -0.000108408 -0.0160834  -8.71974e-05 -0.000461248 -0.0150594  -0.000217851 -0.000607706 -0.0142247  -0.000367846 -0.000757939 -0.0152284  -0.000619575 -0.000475365 -0.0160024  
            </DataArray>
            <DataArray type="Float64" Name="Traction" NumberOfComponents="3" format="ascii">
               0.0401551 0.0413279 -0.0271162  0.0118714 0.0428196 -0.0271162  -0.00989628 0.0405509 -0.0271162  -0.036906 0.0454599 -0.0271162  -0.0617638 0.0509717 -0.0271162  0.0431173 0.0133329 -0.0271162  0.0178317 0.019025 -0.0271162  0.00357266 0.0163994 -0.0271162  -0.0255041 0.019915 -0.0271162  -0.0509681 0.0285462 -0.0271162  0.0411819 -0.00880114 -0.0271162  0.0148725 0.00451032 -0.0271162  0.00506736 0.00618013 -0.0271162  -0.0219179 0.00281766 -0.0271162  -0.0448314 0.0088266 -0.0271162  0.0461122 -0.0363305 -0.0271162  0.0191925 -0.0248442 -0.0271162  0.00201856 -0.0210287 -0.0271162  -0.0244028 -0.0235569 -0.0271162  -0.0439379 -0.0191024 -0.0271162  0.0520255 -0.0620531 -0.0271162  0.0284218 -0.0502159 -0.0271162  0.00843175 -0.0434441 -0.0271162  -0.0197775 -0.0430831 -0.0271162  -0.0391064 -0.038303 -0.0271162  
            </DataArray>
         </PointData> 
      </Piece>
   </UnstructuredGrid> 
</VTKFile>
