<?xml version="1.0"?>
<VTKFile type="UnstructuredGrid" version="0.1" byte_order="LittleEndian">
   <UnstructuredGrid>
      <Piece NumberOfPoints="25" NumberOfCells="0" > 
         <Points> 
            <DataArray type="Float64" Name="Position" NumberOfComponents="3" format="ascii"> 
               0  0  15  
               0.75  0  15  
               1.5  0  15  
               2.25  0  15  
               3  0  15  
               0  0.75  15  
               0.75  0.75  15  
               1.5  0.75  15  
               2.25  0.75  15  
               3  0.75  15  
               0  1.5  15  
               0.75  1.5  15  
               1.5  1.5  15  
               2.25  1.5  15  
               3  1.5  15  
               0  2.25  15  
               0.75  2.25  15  
               1.5  2.25  15  
               2.25  2.25  15  
               3  2.25  15  
               0  3  15  
               0.75  3  15  
               1.5  3  15  
               2.25  3  15  
               3  3  15  
            </DataArray>
         </Points> 

         <Cells>
            <DataArray type="Int32" Name="connectivity" NumberOfComponents="1" format="ascii">
               
            </DataArray> 
            <DataArray type="Int32" Name="offsets" NumberOfComponents="1" format="ascii">
               
            </DataArray>
            <DataArray type="UInt8"  Name="types" NumberOfComponents="1" format="ascii">
               
            </DataArray>
         </Cells>
         <PointData Scalars="Rank " Vectors="Displacement Velocity Traction ">
            <DataArray type="UInt32" Name="Rank" NumberOfComponents="1" format="ascii">
               0 0 0 0 0 0 0 0 0 0 0 0 0 0 0 0 0 0 0 0 0 0 0 0 0 
            </DataArray>
            <DataArray type="Float64" Name="Displacement" NumberOfComponents="3" format="ascii">
               4.55449e-06 3.51624e-06 -3.17073e-06  4.46341e-06 -1.55402e-07 -3.08084e-06  3.85168e-06 -6.70898e-07 -2.89806e-06  3.20739e-06 1.45753e-07 -3.03214e-06  3.04111e-06 -4.44542e-08 -3.17388e-06  1.05321e-07 3.18155e-06 -3.08154e-06  2.20981e-07 -1.30862e-07 -2.70022e-06  1.08425e-07 -4.87677e-07 -2.46597e-06  -1.01953e-07 2.61626e-07 -2.80028e-06  -1.42814e-07 -3.17827e-07 -2.95974e-06  8.96397e-07 2.52765e-06 -2.89543e-06  7.31473e-07 3.89625e-10 -2.46598e-06  -1.92158e-07 -6.11887e-07 -2.06369e-06  -1.21753e-06 5.10557e-07 -2.48284e-06  -1.70536e-06 -6.90328e-07 -2.88758e-06  7.60308e-07 1.98809e-06 -3.02572e-06  6.97655e-07 1.65061e-07 -2.80106e-06  5.76517e-07 -9.71033e-07 -2.48049e-06  5.58521e-07 6.18948e-07 -2.7236e-06  3.98371e-07 -4.24118e-07 -3.06982e-06  -2.18202e-06 1.7226e-06 -3.16978e-06  -2.45606e-06 2.96715e-07 -2.96523e-06  -3.33433e-06 -1.01539e-06 -2.89318e-06  -3.58261e-06 4.20641e-07 -3.07623e-06  -3.24817e-06 -2.29565e-07 -3.16333e-06  
            </DataArray>
            <DataArray type="Float64" Name="Velocity" NumberOfComponents="3" format="ascii">
               6.86505e-06 3.30731e-06 -2.4157e-06  6.81889e-06 -1.13478e-07 -2.57768e-06  5.94767e-06 -1.13951e-06 -2.60268e-06  5.0103e-06 3.69896e-07 -2.61545e-06  4.80531e-06 6.68043e-07 -2.38917e-06  7.0661e-07 3.0321e-06 -2.57582e-06  8.25175e-07 -1.37668e-08 -2.641e-06  6.04418e-07 -7.78517e-07 -2.74938e-06  1.52083e-07 5.33583e-07 -2.80956e-06  5.51363e-08 3.24207e-07 -2.47498e-06  1.35483e-06 2.68839e-06 -2.59563e-06  1.09608e-06 1.07572e-07 -2.75026e-06  -9.10396e-09 -8.97644e-07 -2.77933e-06  -1.32213e-06 7.56844e-07 -2.76983e-06  -1.931e-06 -1.14178e-07 -2.56206e-06  1.3849e-06 2.31944e-06 -2.60171e-06  1.25505e-06 2.0827e-07 -2.81025e-06  9.94952e-07 -1.24047e-06 -2.76502e-06  9.39492e-07 9.13208e-07 -2.67632e-06  7.37541e-07 4.13974e-07 -2.55577e-06  -2.60442e-06 2.08674e-06 -2.38335e-06  -2.83009e-06 3.08553e-07 -2.48713e-06  -3.51097e-06 -1.39145e-06 -2.57323e-06  -3.25282e-06 6.44687e-07 -2.56794e-06  -2.65871e-06 8.77084e-07 -2.38027e-06  
            </DataArray>
            <DataArray type="Float64" Name="Traction" NumberOfComponents="3" format="ascii">
               0.000126035 0.000126237 -0.00012919  -4.9536e-05 8.19697e-05 -0.00012919  -2.31877e-05 -4.40395e-06 -0.00012919  1.21636e-05 6.41078e-05 -0.00012919  -0.00013685 0.000156097 -0.00012919  0.000117187 -4.13366e-05 -0.00012919  6.68922e-06 -9.07562e-06 -0.00012919  2.06151e-08 -7.37435e-07 -0.00012919  7.4613e-06 1.99247e-06 -0.00012919  -0.000165403 1.79041e-05 -0.00012919  0.000116205 -1.08748e-05 -0.00012919  1.56979e-05 -4.1097e-06 -0.00012919  2.08602e-06 -6.70544e-07 -0.00012919  2.20436e-05 4.9794e-06 -0.00012919  -0.00018846 9.36416e-06 -0.00012919  0.000135043 1.76058e-05 -0.00012919  9.74308e-06 1.19449e-05 -0.00012919  8.682e-06 1.09133e-05 -0.00012919  1.36423e-05 1.06319e-05 -0.00012919  -8.4856e-05 -1.19389e-05 -0.00012919  0.000146936 -0.000120775 -0.00012919  1.04269e-05 -0.000118796 -0.00012919  1.7405e-05 -9.59743e-05 -0.00012919  1.79824e-05 -1.06997e-05 -0.00012919  4.80488e-05 2.2746e-05 -0.00012919  
            </DataArray>
         </PointData> 
      </Piece>
   </UnstructuredGrid> 
</VTKFile>
