<?xml version="1.0"?>
<VTKFile type="UnstructuredGrid" version="0.1" byte_order="LittleEndian">
   <UnstructuredGrid>
      <Piece NumberOfPoints="25" NumberOfCells="0" > 
         <Points> 
            <DataArray type="Float64" Name="Position" NumberOfComponents="3" format="ascii"> 
               0  0  15  
               0.75  0  15  
               1.5  0  15  
               2.25  0  15  
               3  0  15  
               0  0.75  15  
               0.75  0.75  15  
               1.5  0.75  15  
               2.25  0.75  15  
               3  0.75  15  
               0  1.5  15  
               0.75  1.5  15  
               1.5  1.5  15  
               2.25  1.5  15  
               3  1.5  15  
               0  2.25  15  
               0.75  2.25  15  
               1.5  2.25  15  
               2.25  2.25  15  
               3  2.25  15  
               0  3  15  
               0.75  3  15  
               1.5  3  15  
               2.25  3  15  
               3  3  15  
            </DataArray>
         </Points> 

         <Cells>
            <DataArray type="Int32" Name="connectivity" NumberOfComponents="1" format="ascii">
               
            </DataArray> 
            <DataArray type="Int32" Name="offsets" NumberOfComponents="1" format="ascii">
               
            </DataArray>
            <DataArray type="UInt8"  Name="types" NumberOfComponents="1" format="ascii">
               
            </DataArray>
         </Cells>
         <PointData Scalars="Rank " Vectors="Displacement Velocity Traction ">
            <DataArray type="UInt32" Name="Rank" NumberOfComponents="1" format="ascii">
               0 0 0 0 0 0 0 0 0 0 0 0 0 0 0 0 0 0 0 0 0 0 0 0 0 
            </DataArray>
            <DataArray type="Float64" Name="Displacement" NumberOfComponents="3" format="ascii">
               9.10775e-12 9.49007e-12 -4.25092e-11  9.23776e-12 -1.57973e-12 -4.25071e-11  4.54607e-12 1.94754e-12 -4.25075e-11  8.71022e-13 -6.59812e-13 -4.25071e-11  2.4217e-12 -2.99361e-12 -4.2506e-11  -1.44942e-12 1.05938e-11 -4.25071e-11  -2.20537e-12 -2.59551e-12 -4.25071e-11  -1.0617e-12 3.80153e-12 -4.25067e-11  1.54163e-12 -1.73718e-13 -4.25069e-11  2.27555e-12 -3.95391e-13 -4.2507e-11  2.46555e-12 4.07046e-12 -4.25079e-11  4.21466e-12 -7.40184e-13 -4.25066e-11  -2.06593e-13 -2.24604e-13 -4.25082e-11  -6.07343e-12 2.47184e-12 -4.25069e-11  -6.36587e-12 -6.44406e-12 -4.25085e-11  -1.5558e-14 1.05275e-12 -4.25074e-11  -6.13676e-13 1.6224e-12 -4.2507e-11  2.41776e-12 -5.65711e-12 -4.25069e-11  3.00629e-12 2.00339e-12 -4.25073e-11  -1.65152e-13 -9.73687e-12 -4.25075e-11  -4.20036e-12 1.90293e-12 -4.25059e-11  -4.16421e-13 1.41664e-12 -4.25073e-11  -8.48567e-12 -4.31806e-12 -4.25081e-11  -1.30749e-11 -8.02576e-13 -4.25074e-11  -5.94815e-12 -5.98279e-12 -4.25074e-11  
            </DataArray>
            <DataArray type="Float64" Name="Velocity" NumberOfComponents="3" format="ascii">
               6.146e-10 6.4084e-10 -1.97414e-09  6.22548e-10 -1.07242e-10 -1.97396e-09  3.06695e-10 1.31839e-10 -1.97399e-09  5.93733e-11 -4.47143e-11 -1.97396e-09  1.62455e-10 -2.00568e-10 -1.97389e-09  -9.83192e-11 7.14099e-10 -1.97395e-09  -1.48522e-10 -1.74813e-10 -1.97396e-09  -7.15202e-11 2.55766e-10 -1.97394e-09  1.03811e-10 -1.15853e-11 -1.97395e-09  1.53626e-10 -2.74503e-11 -1.97395e-09  1.67054e-10 2.74654e-10 -1.97402e-09  2.83744e-10 -4.98753e-11 -1.97393e-09  -1.40964e-11 -1.49916e-11 -1.97403e-09  -4.0925e-10 1.66331e-10 -1.97395e-09  -4.29493e-10 -4.34501e-10 -1.97407e-09  -1.58576e-12 7.1535e-11 -1.97398e-09  -4.10884e-11 1.09213e-10 -1.97396e-09  1.62793e-10 -3.81134e-10 -1.97395e-09  2.02506e-10 1.35049e-10 -1.97398e-09  -1.01002e-11 -6.55398e-10 -1.97399e-09  -2.81855e-10 1.276e-10 -1.97389e-09  -2.90656e-11 9.60021e-11 -1.97398e-09  -5.72267e-10 -2.91461e-10 -1.97403e-09  -8.80822e-10 -5.35317e-11 -1.97398e-09  -4.03691e-10 -4.05277e-10 -1.97401e-09  
            </DataArray>
            <DataArray type="Float64" Name="Traction" NumberOfComponents="3" format="ascii">
               0 0 0  0 0 0  0 0 0  0 0 0  0 0 0  0 0 0  0 0 0  0 0 0  0 0 0  0 0 0  0 0 0  0 0 0  0 0 0  0 0 0  0 0 0  0 0 0  0 0 0  0 0 0  0 0 0  0 0 0  0 0 0  0 0 0  0 0 0  0 0 0  0 0 0  
            </DataArray>
         </PointData> 
      </Piece>
   </UnstructuredGrid> 
</VTKFile>
