<?xml version="1.0"?>
<VTKFile type="UnstructuredGrid" version="0.1" byte_order="LittleEndian">
   <UnstructuredGrid>
      <Piece NumberOfPoints="25" NumberOfCells="0" > 
         <Points> 
            <DataArray type="Float64" Name="Position" NumberOfComponents="3" format="ascii"> 
               0  0  20  
               0.75  0  20  
               1.5  0  20  
               2.25  0  20  
               3  0  20  
               0  0.75  20  
               0.75  0.75  20  
               1.5  0.75  20  
               2.25  0.75  20  
               3  0.75  20  
               0  1.5  20  
               0.75  1.5  20  
               1.5  1.5  20  
               2.25  1.5  20  
               3  1.5  20  
               0  2.25  20  
               0.75  2.25  20  
               1.5  2.25  20  
               2.25  2.25  20  
               3  2.25  20  
               0  3  20  
               0.75  3  20  
               1.5  3  20  
               2.25  3  20  
               3  3  20  
            </DataArray>
         </Points> 

         <Cells>
            <DataArray type="Int32" Name="connectivity" NumberOfComponents="1" format="ascii">
               
            </DataArray> 
            <DataArray type="Int32" Name="offsets" NumberOfComponents="1" format="ascii">
               
            </DataArray>
            <DataArray type="UInt8"  Name="types" NumberOfComponents="1" format="ascii">
               
            </DataArray>
         </Cells>
         <PointData Scalars="Rank " Vectors="Displacement Velocity Traction ">
            <DataArray type="UInt32" Name="Rank" NumberOfComponents="1" format="ascii">
               0 0 0 0 0 0 0 0 0 0 0 0 0 0 0 0 0 0 0 0 0 0 0 0 0 
            </DataArray>
            <DataArray type="Float64" Name="Displacement" NumberOfComponents="3" format="ascii">
               0 0 0  0 0 0  0 0 0  0 0 0  0 0 0  0 0 0  0 0 0  0 0 0  0 0 0  0 0 0  0 0 0  0 0 0  0 0 0  0 0 0  0 0 0  0 0 0  0 0 0  0 0 0  0 0 0  0 0 0  0 0 0  0 0 0  0 0 0  0 0 0  0 0 0  
            </DataArray>
            <DataArray type="Float64" Name="Velocity" NumberOfComponents="3" format="ascii">
               0 0 0  0 0 0  0 0 0  0 0 0  0 0 0  0 0 0  0 0 0  0 0 0  0 0 0  0 0 0  0 0 0  0 0 0  0 0 0  0 0 0  0 0 0  0 0 0  0 0 0  0 0 0  0 0 0  0 0 0  0 0 0  0 0 0  0 0 0  0 0 0  0 0 0  
            </DataArray>
            <DataArray type="Float64" Name="Traction" NumberOfComponents="3" format="ascii">
               -5.40246e-06 -5.15624e-06 -2.74151e-05  -1.53239e-06 -9.51841e-06 -2.74151e-05  2.66405e-06 -1.07021e-05 -2.74151e-05  2.50291e-06 -6.95892e-06 -2.74151e-05  5.25052e-06 -8.99986e-06 -2.74151e-05  -9.55303e-06 -1.22797e-06 -2.74151e-05  -3.85598e-06 -3.79097e-06 -2.74151e-05  2.73942e-06 -5.73805e-06 -2.74151e-05  3.43078e-06 -3.64243e-06 -2.74151e-05  6.31346e-06 -4.48286e-06 -2.74151e-05  -1.09691e-05 2.9224e-06 -2.74151e-05  -5.97121e-06 2.70785e-06 -2.74151e-05  2.04679e-06 2.06504e-06 -2.74151e-05  5.72346e-06 2.69554e-07 -2.74151e-05  1.06351e-05 -1.30701e-06 -2.74151e-05  -7.00172e-06 2.76187e-06 -2.74151e-05  -3.73593e-06 3.39798e-06 -2.74151e-05  2.24556e-07 5.65024e-06 -2.74151e-05  3.4822e-06 3.54077e-06 -2.74151e-05  9.00066e-06 9.89475e-07 -2.74151e-05  -8.58645e-06 5.57166e-06 -2.74151e-05  -4.15238e-06 6.26955e-06 -2.74151e-05  -8.98666e-07 1.05582e-05 -2.74151e-05  1.55482e-06 9.26848e-06 -2.74151e-05  5.23128e-06 4.84838e-06 -2.74151e-05  
            </DataArray>
         </PointData> 
      </Piece>
   </UnstructuredGrid> 
</VTKFile>
