<?xml version="1.0"?>
<VTKFile type="UnstructuredGrid" version="0.1" byte_order="LittleEndian">
   <UnstructuredGrid>
      <Piece NumberOfPoints="25" NumberOfCells="0" > 
         <Points> 
            <DataArray type="Float64" Name="Position" NumberOfComponents="3" format="ascii"> 
               0  0  15  
               0.75  0  15  
               1.5  0  15  
               2.25  0  15  
               3  0  15  
               0  0.75  15  
               0.75  0.75  15  
               1.5  0.75  15  
               2.25  0.75  15  
               3  0.75  15  
               0  1.5  15  
               0.75  1.5  15  
               1.5  1.5  15  
               2.25  1.5  15  
               3  1.5  15  
               0  2.25  15  
               0.75  2.25  15  
               1.5  2.25  15  
               2.25  2.25  15  
               3  2.25  15  
               0  3  15  
               0.75  3  15  
               1.5  3  15  
               2.25  3  15  
               3  3  15  
            </DataArray>
         </Points> 

         <Cells>
            <DataArray type="Int32" Name="connectivity" NumberOfComponents="1" format="ascii">
               
            </DataArray> 
            <DataArray type="Int32" Name="offsets" NumberOfComponents="1" format="ascii">
               
            </DataArray>
            <DataArray type="UInt8"  Name="types" NumberOfComponents="1" format="ascii">
               
            </DataArray>
         </Cells>
         <PointData Scalars="Rank " Vectors="Displacement Velocity Traction ">
            <DataArray type="UInt32" Name="Rank" NumberOfComponents="1" format="ascii">
               0 0 0 0 0 0 0 0 0 0 0 0 0 0 0 0 0 0 0 0 0 0 0 0 0 
            </DataArray>
            <DataArray type="Float64" Name="Displacement" NumberOfComponents="3" format="ascii">
               0.000255608 0.00015976 -1.82579e-05  0.000249371 3.87844e-05 -1.54545e-05  0.00022109 2.59575e-05 -1.30822e-05  0.000188426 1.01626e-05 -1.4468e-05  0.000178033 -5.87328e-05 -1.7707e-05  8.95663e-05 0.000155795 -1.58603e-05  9.21171e-05 4.1046e-05 -1.03289e-05  8.9281e-05 2.73642e-05 -6.03304e-06  8.95077e-05 5.32421e-06 -9.69751e-06  9.56936e-05 -6.89465e-05 -1.4823e-05  5.83224e-05 0.0001333 -1.33614e-05  6.24918e-05 3.07252e-05 -5.97883e-06  4.62684e-05 1.28826e-06 -4.38965e-07  3.49788e-05 -1.76943e-05 -6.19875e-06  4.22246e-05 -9.6212e-05 -1.36928e-05  2.52413e-05 0.000105021 -1.44969e-05  2.81911e-05 1.71657e-05 -9.57399e-06  2.42642e-05 -2.22032e-05 -6.09625e-06  2.27819e-05 -3.65294e-05 -1.02251e-05  2.50706e-05 -0.000112428 -1.59399e-05  -3.04275e-05 9.56174e-05 -1.78676e-05  -3.55187e-05 1.26626e-05 -1.48817e-05  -4.87365e-05 -2.83585e-05 -1.35257e-05  -5.08587e-05 -4.39152e-05 -1.58075e-05  -4.61679e-05 -0.000111826 -1.8718e-05  
            </DataArray>
            <DataArray type="Float64" Name="Velocity" NumberOfComponents="3" format="ascii">
               0.000172561 0.000148367 -4.79433e-05  0.000165257 3.43214e-05 -4.29241e-05  0.000137063 7.28769e-06 -3.83677e-05  0.000104118 -9.18351e-06 -4.11203e-05  9.19173e-05 -8.14181e-05 -4.6472e-05  4.47954e-05 0.000141631 -4.36585e-05  4.58497e-05 3.46443e-05 -3.24444e-05  3.36354e-05 1.41994e-05 -2.5468e-05  2.32998e-05 -9.846e-06 -3.30171e-05  2.63964e-05 -9.1981e-05 -4.01775e-05  7.45113e-06 0.000114925 -3.92941e-05  1.61869e-05 1.8022e-05 -2.55216e-05  3.80292e-06 -4.6117e-06 -1.47179e-05  -5.33738e-06 -3.17264e-05 -2.57496e-05  5.56246e-06 -0.000121036 -3.8121e-05  -1.28786e-05 8.35358e-05 -4.17855e-05  -1.03037e-05 1.24188e-06 -3.2834e-05  -2.27765e-05 -2.17887e-05 -2.56221e-05  -3.43536e-05 -5.34759e-05 -3.26197e-05  -3.22117e-05 -0.000145758 -4.22928e-05  -6.7238e-05 7.22316e-05 -4.78823e-05  -7.55428e-05 -3.11218e-07 -4.06083e-05  -9.69323e-05 -1.84868e-05 -3.85792e-05  -0.000112754 -5.76463e-05 -4.29617e-05  -0.000115431 -0.000152206 -4.65947e-05  
            </DataArray>
            <DataArray type="Float64" Name="Traction" NumberOfComponents="3" format="ascii">
               0 0 0  0 0 0  0 0 0  0 0 0  0 0 0  0 0 0  0 0 0  0 0 0  0 0 0  0 0 0  0 0 0  0 0 0  0 0 0  0 0 0  0 0 0  0 0 0  0 0 0  0 0 0  0 0 0  0 0 0  0 0 0  0 0 0  0 0 0  0 0 0  0 0 0  
            </DataArray>
         </PointData> 
      </Piece>
   </UnstructuredGrid> 
</VTKFile>
