<?xml version="1.0"?>
<VTKFile type="UnstructuredGrid" version="0.1" byte_order="LittleEndian">
   <UnstructuredGrid>
      <Piece NumberOfPoints="25" NumberOfCells="0" > 
         <Points> 
            <DataArray type="Float64" Name="Position" NumberOfComponents="3" format="ascii"> 
               0  0  15  
               0.75  0  15  
               1.5  0  15  
               2.25  0  15  
               3  0  15  
               0  0.75  15  
               0.75  0.75  15  
               1.5  0.75  15  
               2.25  0.75  15  
               3  0.75  15  
               0  1.5  15  
               0.75  1.5  15  
               1.5  1.5  15  
               2.25  1.5  15  
               3  1.5  15  
               0  2.25  15  
               0.75  2.25  15  
               1.5  2.25  15  
               2.25  2.25  15  
               3  2.25  15  
               0  3  15  
               0.75  3  15  
               1.5  3  15  
               2.25  3  15  
               3  3  15  
            </DataArray>
         </Points> 

         <Cells>
            <DataArray type="Int32" Name="connectivity" NumberOfComponents="1" format="ascii">
               
            </DataArray> 
            <DataArray type="Int32" Name="offsets" NumberOfComponents="1" format="ascii">
               
            </DataArray>
            <DataArray type="UInt8"  Name="types" NumberOfComponents="1" format="ascii">
               
            </DataArray>
         </Cells>
         <PointData Scalars="Rank " Vectors="Displacement Velocity Traction ">
            <DataArray type="UInt32" Name="Rank" NumberOfComponents="1" format="ascii">
               0 0 0 0 0 0 0 0 0 0 0 0 0 0 0 0 0 0 0 0 0 0 0 0 0 
            </DataArray>
            <DataArray type="Float64" Name="Displacement" NumberOfComponents="3" format="ascii">
               3.41463e-10 3.64495e-10 -9.38241e-10  3.24048e-10 -6.42417e-11 -8.60759e-10  1.67633e-10 8.85672e-11 -7.85461e-10  4.57511e-11 -1.99328e-11 -8.60748e-10  6.60932e-11 -7.701e-11 -9.37935e-10  -5.72111e-11 3.72523e-10 -8.6075e-10  -7.57893e-11 -8.91915e-11 -6.54219e-10  -3.58808e-11 1.2427e-10 -4.50707e-10  5.2681e-11 -4.18614e-12 -6.54199e-10  7.83977e-11 -3.15648e-11 -8.60732e-10  1.10497e-10 1.53953e-10 -7.85457e-10  1.40776e-10 -2.5415e-11 -4.50693e-10  -1.04754e-11 -6.73857e-12 -1.20316e-10  -2.09968e-10 8.09131e-11 -4.50707e-10  -2.3957e-10 -2.31056e-10 -7.85504e-10  -4.05177e-12 4.99841e-11 -8.60742e-10  -1.66294e-11 5.45625e-11 -6.54199e-10  8.09319e-11 -1.9414e-10 -4.50722e-10  1.03785e-10 7.13536e-11 -6.54224e-10  9.58901e-12 -3.2947e-10 -8.6077e-10  -1.17416e-10 5.09927e-11 -9.3793e-10  -3.67061e-11 5.34658e-11 -8.60752e-10  -3.05202e-10 -1.69415e-10 -7.855e-10  -4.5197e-10 -2.18104e-11 -8.60791e-10  -2.68812e-10 -2.54499e-10 -9.38167e-10  
            </DataArray>
            <DataArray type="Float64" Name="Velocity" NumberOfComponents="3" format="ascii">
               4.89206e-09 5.27935e-09 -1.21355e-08  4.49207e-09 -9.41949e-10 -1.1038e-08  2.38555e-09 1.37798e-09 -9.96008e-09  7.4469e-10 -2.44453e-10 -1.10374e-08  7.92865e-10 -8.72166e-10 -1.21304e-08  -8.27064e-10 5.16857e-09 -1.10378e-08  -1.04141e-09 -1.22536e-09 -8.08025e-09  -4.87562e-10 1.66155e-09 -5.14655e-09  7.21558e-10 -4.68862e-11 -8.07983e-09  1.07232e-09 -5.60321e-10 -1.10373e-08  1.70699e-09 2.22121e-09 -9.96e-09  1.90378e-09 -3.48799e-10 -5.14636e-09  -1.69058e-10 -9.03531e-11 -3.68801e-10  -2.88726e-09 1.08319e-09 -5.14666e-09  -3.4478e-09 -3.23246e-09 -9.96084e-09  -7.09769e-11 7.87764e-10 -1.10374e-08  -1.98589e-10 7.41175e-10 -8.07984e-09  1.0956e-09 -2.65823e-09 -5.14687e-09  1.42938e-09 9.97304e-10 -8.08039e-09  2.33628e-10 -4.49329e-09 -1.10381e-08  -1.41628e-09 6.05639e-10 -1.21303e-08  -6.64668e-10 7.63379e-10 -1.10376e-08  -4.27994e-09 -2.48913e-09 -9.96082e-09  -6.22705e-09 -2.61551e-10 -1.10385e-08  -4.13872e-09 -3.82662e-09 -1.21345e-08  
            </DataArray>
            <DataArray type="Float64" Name="Traction" NumberOfComponents="3" format="ascii">
               0 0 0  0 0 0  0 0 0  0 0 0  0 0 0  0 0 0  0 0 0  0 0 0  0 0 0  0 0 0  0 0 0  0 0 0  0 0 0  0 0 0  0 0 0  0 0 0  0 0 0  0 0 0  0 0 0  0 0 0  0 0 0  0 0 0  0 0 0  0 0 0  0 0 0  
            </DataArray>
         </PointData> 
      </Piece>
   </UnstructuredGrid> 
</VTKFile>
