<?xml version="1.0"?>
<VTKFile type="UnstructuredGrid" version="0.1" byte_order="LittleEndian">
   <UnstructuredGrid>
      <Piece NumberOfPoints="25" NumberOfCells="0" > 
         <Points> 
            <DataArray type="Float64" Name="Position" NumberOfComponents="3" format="ascii"> 
               0  0  15  
               0.75  0  15  
               1.5  0  15  
               2.25  0  15  
               3  0  15  
               0  0.75  15  
               0.75  0.75  15  
               1.5  0.75  15  
               2.25  0.75  15  
               3  0.75  15  
               0  1.5  15  
               0.75  1.5  15  
               1.5  1.5  15  
               2.25  1.5  15  
               3  1.5  15  
               0  2.25  15  
               0.75  2.25  15  
               1.5  2.25  15  
               2.25  2.25  15  
               3  2.25  15  
               0  3  15  
               0.75  3  15  
               1.5  3  15  
               2.25  3  15  
               3  3  15  
            </DataArray>
         </Points> 

         <Cells>
            <DataArray type="Int32" Name="connectivity" NumberOfComponents="1" format="ascii">
               
            </DataArray> 
            <DataArray type="Int32" Name="offsets" NumberOfComponents="1" format="ascii">
               
            </DataArray>
            <DataArray type="UInt8"  Name="types" NumberOfComponents="1" format="ascii">
               
            </DataArray>
         </Cells>
         <PointData Scalars="Rank " Vectors="Displacement Velocity Traction ">
            <DataArray type="UInt32" Name="Rank" NumberOfComponents="1" format="ascii">
               0 0 0 0 0 0 0 0 0 0 0 0 0 0 0 0 0 0 0 0 0 0 0 0 0 
            </DataArray>
            <DataArray type="Float64" Name="Displacement" NumberOfComponents="3" format="ascii">
               0.00126903 0.00170209 -0.0474822  0.000402909 0.00115504 -0.0442322  0.000171849 0.000553425 -0.0407919  0.000441432 -0.000159817 -0.044544  3.28375e-06 0.000120645 -0.0476722  0.000665366 0.000828379 -0.0442442  -0.000369178 0.000112746 -0.0361321  -0.00106496 -0.000256922 -0.0283882  -0.00140502 -0.000976622 -0.036666  -0.00200114 -0.000968348 -0.0441809  0.000105374 0.000597743 -0.0407928  -0.000704609 -0.000600163 -0.0283832  -0.00101446 -0.000571148 -0.0159503  -0.00153454 -0.00124545 -0.0284968  -0.00232247 -0.0017084 -0.0407515  -0.000646552 0.000870423 -0.0445334  -0.00145798 -0.000950305 -0.0366562  -0.001724 -0.00109174 -0.0284925  -0.00234702 -0.00186952 -0.0363342  -0.00335551 -0.00239999 -0.0441757  -0.000427851 0.000428946 -0.0476619  -0.00150817 -0.00154621 -0.0441749  -0.0022442 -0.00187565 -0.0407514  -0.00293456 -0.00288024 -0.0441809  -0.00383359 -0.00330319 -0.0472828  
            </DataArray>
            <DataArray type="Float64" Name="Velocity" NumberOfComponents="3" format="ascii">
               -0.00259148 -0.0024599 -0.18665  -0.00644064 0.00526079 -0.169325  -0.00466818 0.00547196 -0.15297  0.000171987 0.00272026 -0.17261  -0.000740974 0.0108945 -0.189191  0.00510333 -0.00634908 -0.169358  -3.05037e-05 0.000116645 -0.132241  -0.00113879 0.00104491 -0.0923418  -0.000169573 -0.00126707 -0.132156  -0.00304363 0.00643431 -0.172272  0.0054012 -0.00456788 -0.152996  0.000950225 -0.000998112 -0.0923409  0.00174142 0.0018671 -0.0291386  0.000945523 0.000325733 -0.0924678  -0.00382538 0.00602946 -0.152996  0.00260735 0.000313169 -0.172629  -0.00137913 -1.78426e-05 -0.132149  0.000182937 0.00108002 -0.0924674  -0.000523717 -0.000370517 -0.132605  -0.00568871 0.00555977 -0.169259  0.0107116 -0.000604556 -0.189252  0.00627442 -0.00287773 -0.172296  0.00584909 -0.00368091 -0.153026  0.00536208 -0.00555417 -0.169285  0.00159797 0.00177384 -0.186334  
            </DataArray>
            <DataArray type="Float64" Name="Traction" NumberOfComponents="3" format="ascii">
               -0.0383148 -0.0369553 2.58849  -0.0067877 -0.117282 2.58849  0.012704 -0.211277 2.58849  -0.0278534 -0.109685 2.58849  0.00663003 -0.0360236 2.58849  -0.116736 -0.00482668 2.58849  -0.0520883 -0.050409 2.58849  0.0838431 -0.132481 2.58849  0.0358323 -0.0466389 2.58849  0.0982926 0.00423839 2.58849  -0.209181 0.0140241 2.58849  -0.1348 0.0850301 2.58849  0.157442 0.159471 2.58849  0.116246 0.0804536 2.58849  0.201369 0.0312034 2.58849  -0.108126 -0.027322 2.58849  -0.0471919 0.0366324 2.58849  0.0794594 0.117957 2.58849  0.040532 0.0420213 2.58849  0.114183 -0.00371568 2.58849  -0.0345715 0.0067576 2.58849  0.00470183 0.0996152 2.58849  0.0309733 0.20398 2.58849  -0.00474297 0.116096 2.58849  0.0384204 0.0397451 2.58849  
            </DataArray>
         </PointData> 
      </Piece>
   </UnstructuredGrid> 
</VTKFile>
