<?xml version="1.0"?>
<VTKFile type="UnstructuredGrid" version="0.1" byte_order="LittleEndian">
   <UnstructuredGrid>
      <Piece NumberOfPoints="25" NumberOfCells="0" > 
         <Points> 
            <DataArray type="Float64" Name="Position" NumberOfComponents="3" format="ascii"> 
               0  0  20  
               0.75  0  20  
               1.5  0  20  
               2.25  0  20  
               3  0  20  
               0  0.75  20  
               0.75  0.75  20  
               1.5  0.75  20  
               2.25  0.75  20  
               3  0.75  20  
               0  1.5  20  
               0.75  1.5  20  
               1.5  1.5  20  
               2.25  1.5  20  
               3  1.5  20  
               0  2.25  20  
               0.75  2.25  20  
               1.5  2.25  20  
               2.25  2.25  20  
               3  2.25  20  
               0  3  20  
               0.75  3  20  
               1.5  3  20  
               2.25  3  20  
               3  3  20  
            </DataArray>
         </Points> 

         <Cells>
            <DataArray type="Int32" Name="connectivity" NumberOfComponents="1" format="ascii">
               
            </DataArray> 
            <DataArray type="Int32" Name="offsets" NumberOfComponents="1" format="ascii">
               
            </DataArray>
            <DataArray type="UInt8"  Name="types" NumberOfComponents="1" format="ascii">
               
            </DataArray>
         </Cells>
         <PointData Scalars="Rank " Vectors="Displacement Velocity Traction ">
            <DataArray type="UInt32" Name="Rank" NumberOfComponents="1" format="ascii">
               0 0 0 0 0 0 0 0 0 0 0 0 0 0 0 0 0 0 0 0 0 0 0 0 0 
            </DataArray>
            <DataArray type="Float64" Name="Displacement" NumberOfComponents="3" format="ascii">
               0 0 0  0 0 0  0 0 0  0 0 0  0 0 0  0 0 0  0 0 0  0 0 0  0 0 0  0 0 0  0 0 0  0 0 0  0 0 0  0 0 0  0 0 0  0 0 0  0 0 0  0 0 0  0 0 0  0 0 0  0 0 0  0 0 0  0 0 0  0 0 0  0 0 0  
            </DataArray>
            <DataArray type="Float64" Name="Velocity" NumberOfComponents="3" format="ascii">
               0 0 0  0 0 0  0 0 0  0 0 0  0 0 0  0 0 0  0 0 0  0 0 0  0 0 0  0 0 0  0 0 0  0 0 0  0 0 0  0 0 0  0 0 0  0 0 0  0 0 0  0 0 0  0 0 0  0 0 0  0 0 0  0 0 0  0 0 0  0 0 0  0 0 0  
            </DataArray>
            <DataArray type="Float64" Name="Traction" NumberOfComponents="3" format="ascii">
               -0.00028149 -0.000262635 -0.00201178  -0.000104647 -0.000420935 -0.00201178  7.67592e-05 -0.0005212 -0.00201178  8.62899e-05 -0.0003558 -0.00201178  0.000236141 -0.0003467 -0.00201178  -0.000433437 -9.06081e-05 -0.00201178  -0.000175931 -0.000168745 -0.00201178  0.000130705 -0.000276629 -0.00201178  0.000165753 -0.000176728 -0.00201178  0.000325664 -0.000144946 -0.00201178  -0.000537071 8.06329e-05 -0.00201178  -0.000284908 0.000126762 -0.00201178  0.000112306 0.000109213 -0.00201178  0.000259971 3.16041e-05 -0.00201178  0.000497471 -8.16082e-06 -0.00201178  -0.000362215 0.000106394 -0.00201178  -0.000175929 0.000174817 -0.00201178  3.75048e-05 0.00026375 -0.00201178  0.000163891 0.000168111 -0.00201178  0.000409174 8.58713e-05 -0.00201178  -0.000353271 0.000268511 -0.00201178  -0.000144503 0.000348965 -0.00201178  1.29242e-06 0.000512228 -0.00201178  8.75274e-05 0.000422379 -0.00201178  0.000250657 0.000257619 -0.00201178  
            </DataArray>
         </PointData> 
      </Piece>
   </UnstructuredGrid> 
</VTKFile>
