<?xml version="1.0"?>
<VTKFile type="UnstructuredGrid" version="0.1" byte_order="LittleEndian">
   <UnstructuredGrid>
      <Piece NumberOfPoints="25" NumberOfCells="0" > 
         <Points> 
            <DataArray type="Float64" Name="Position" NumberOfComponents="3" format="ascii"> 
               0  0  15  
               0.75  0  15  
               1.5  0  15  
               2.25  0  15  
               3  0  15  
               0  0.75  15  
               0.75  0.75  15  
               1.5  0.75  15  
               2.25  0.75  15  
               3  0.75  15  
               0  1.5  15  
               0.75  1.5  15  
               1.5  1.5  15  
               2.25  1.5  15  
               3  1.5  15  
               0  2.25  15  
               0.75  2.25  15  
               1.5  2.25  15  
               2.25  2.25  15  
               3  2.25  15  
               0  3  15  
               0.75  3  15  
               1.5  3  15  
               2.25  3  15  
               3  3  15  
            </DataArray>
         </Points> 

         <Cells>
            <DataArray type="Int32" Name="connectivity" NumberOfComponents="1" format="ascii">
               
            </DataArray> 
            <DataArray type="Int32" Name="offsets" NumberOfComponents="1" format="ascii">
               
            </DataArray>
            <DataArray type="UInt8"  Name="types" NumberOfComponents="1" format="ascii">
               
            </DataArray>
         </Cells>
         <PointData Scalars="Rank " Vectors="Displacement Velocity Traction ">
            <DataArray type="UInt32" Name="Rank" NumberOfComponents="1" format="ascii">
               0 0 0 0 0 0 0 0 0 0 0 0 0 0 0 0 0 0 0 0 0 0 0 0 0 
            </DataArray>
            <DataArray type="Float64" Name="Displacement" NumberOfComponents="3" format="ascii">
               4.20998e-07 5.17038e-07 -6.38482e-07  4.01004e-07 -5.08418e-08 -5.79389e-07  3.40224e-07 1.79143e-08 -5.23019e-07  2.7285e-07 1.66286e-08 -5.70158e-07  2.50075e-07 -8.32937e-08 -6.38152e-07  -4.18643e-08 4.63419e-07 -5.79457e-07  -3.09849e-08 -5.63928e-08 -4.44968e-07  -2.15348e-08 4.59334e-09 -3.37495e-07  -4.81189e-10 1.90374e-08 -4.48415e-07  8.57066e-09 -1.22519e-07 -5.68931e-07  1.25101e-07 3.28416e-07 -5.23033e-07  8.94653e-08 -1.8429e-08 -3.37487e-07  -4.55059e-08 -4.26591e-08 -1.76826e-07  -1.73052e-07 5.42364e-08 -3.39023e-07  -2.3583e-07 -1.91532e-07 -5.24459e-07  4.69805e-08 2.33033e-07 -5.70028e-07  4.20746e-08 2.54656e-08 -4.48473e-07  5.93867e-08 -1.31376e-07 -3.39032e-07  7.74795e-08 5.8926e-08 -4.46297e-07  5.79652e-08 -2.0039e-07 -5.7938e-07  -2.1828e-07 1.91653e-07 -6.3797e-07  -2.63772e-07 4.39656e-08 -5.69052e-07  -4.25064e-07 -1.46858e-07 -5.24676e-07  -5.26355e-07 2.74155e-08 -5.79568e-07  -5.05407e-07 -2.08728e-07 -6.38615e-07  
            </DataArray>
            <DataArray type="Float64" Name="Velocity" NumberOfComponents="3" format="ascii">
               1.0967e-06 1.26065e-06 -1.30639e-06  1.05988e-06 -9.15978e-08 -1.20369e-06  9.19117e-07 -6.96123e-08 -1.09182e-06  7.64553e-07 2.98981e-08 -1.17313e-06  7.15383e-07 -1.75152e-07 -1.31217e-06  -7.54405e-08 1.13526e-06 -1.20399e-06  -3.90693e-08 -9.9831e-08 -9.59267e-07  -4.11922e-08 -6.60657e-08 -7.88986e-07  -3.68491e-08 4.8334e-08 -9.75424e-07  -2.8609e-08 -2.59274e-07 -1.16582e-06  2.5884e-07 8.3907e-07 -1.09176e-06  2.00491e-07 -3.31532e-08 -7.8895e-07  -1.00198e-07 -1.31748e-07 -5.40049e-07  -3.93394e-07 1.29901e-07 -7.93841e-07  -5.35491e-07 -3.86189e-07 -1.0948e-06  1.42557e-07 6.17984e-07 -1.17252e-06  1.32879e-07 5.08008e-08 -9.75642e-07  1.38745e-07 -2.88179e-07 -7.9374e-07  1.60644e-07 1.46357e-07 -9.63972e-07  1.18196e-07 -3.5965e-07 -1.20291e-06  -6.14627e-07 5.21426e-07 -1.31143e-06  -7.19595e-07 9.9843e-08 -1.16634e-06  -1.07262e-06 -2.9899e-07 -1.09561e-06  -1.27648e-06 8.42283e-08 -1.20369e-06  -1.21791e-06 -3.5403e-07 -1.30816e-06  
            </DataArray>
            <DataArray type="Float64" Name="Traction" NumberOfComponents="3" format="ascii">
               0 0 0  0 0 0  0 0 0  0 0 0  0 0 0  0 0 0  0 0 0  0 0 0  0 0 0  0 0 0  0 0 0  0 0 0  0 0 0  0 0 0  0 0 0  0 0 0  0 0 0  0 0 0  0 0 0  0 0 0  0 0 0  0 0 0  0 0 0  0 0 0  0 0 0  
            </DataArray>
         </PointData> 
      </Piece>
   </UnstructuredGrid> 
</VTKFile>
