<?xml version="1.0"?>
<VTKFile type="UnstructuredGrid" version="0.1" byte_order="LittleEndian">
   <UnstructuredGrid>
      <Piece NumberOfPoints="25" NumberOfCells="0" > 
         <Points> 
            <DataArray type="Float64" Name="Position" NumberOfComponents="3" format="ascii"> 
               0  0  20  
               0.75  0  20  
               1.5  0  20  
               2.25  0  20  
               3  0  20  
               0  0.75  20  
               0.75  0.75  20  
               1.5  0.75  20  
               2.25  0.75  20  
               3  0.75  20  
               0  1.5  20  
               0.75  1.5  20  
               1.5  1.5  20  
               2.25  1.5  20  
               3  1.5  20  
               0  2.25  20  
               0.75  2.25  20  
               1.5  2.25  20  
               2.25  2.25  20  
               3  2.25  20  
               0  3  20  
               0.75  3  20  
               1.5  3  20  
               2.25  3  20  
               3  3  20  
            </DataArray>
         </Points> 

         <Cells>
            <DataArray type="Int32" Name="connectivity" NumberOfComponents="1" format="ascii">
               
            </DataArray> 
            <DataArray type="Int32" Name="offsets" NumberOfComponents="1" format="ascii">
               
            </DataArray>
            <DataArray type="UInt8"  Name="types" NumberOfComponents="1" format="ascii">
               
            </DataArray>
         </Cells>
         <PointData Scalars="Rank " Vectors="Displacement Velocity Traction ">
            <DataArray type="UInt32" Name="Rank" NumberOfComponents="1" format="ascii">
               0 0 0 0 0 0 0 0 0 0 0 0 0 0 0 0 0 0 0 0 0 0 0 0 0 
            </DataArray>
            <DataArray type="Float64" Name="Displacement" NumberOfComponents="3" format="ascii">
               1.70814e-07 1.70269e-07 -6.50383e-07  -4.57616e-09 3.08777e-07 -5.90566e-07  -6.00614e-08 3.97418e-07 -5.32997e-07  -5.64497e-08 2.74653e-07 -5.80933e-07  -2.09424e-07 2.68272e-07 -6.50523e-07  3.09348e-07 -4.40489e-09 -5.90639e-07  7.21939e-08 7.23808e-08 -4.53418e-07  -1.37578e-08 1.27013e-07 -3.44171e-07  -6.23986e-08 6.14429e-08 -4.57084e-07  -2.72008e-07 9.65342e-08 -5.79624e-07  3.96965e-07 -5.9809e-08 -5.32969e-07  1.27003e-07 -1.33169e-08 -3.44175e-07  1.01131e-08 9.99698e-09 -1.8079e-07  -1.13213e-07 1.39753e-08 -3.45765e-07  -3.87854e-07 6.32256e-08 -5.34408e-07  2.74027e-07 -5.64412e-08 -5.80792e-07  6.13136e-08 -6.26097e-08 -4.57144e-07  1.43857e-08 -1.13402e-07 -3.45764e-07  -6.79434e-08 -6.79579e-08 -4.54801e-07  -3.05662e-07 -1.03785e-09 -5.9054e-07  2.68318e-07 -2.09746e-07 -6.50348e-07  9.65119e-08 -2.72179e-07 -5.79756e-07  6.40151e-08 -3.88606e-07 -5.34647e-07  -1.1984e-09 -3.07573e-07 -5.90735e-07  -1.72328e-07 -1.73542e-07 -6.5061e-07  
            </DataArray>
            <DataArray type="Float64" Name="Velocity" NumberOfComponents="3" format="ascii">
               3.25553e-07 3.24071e-07 -1.32264e-06  -2.24727e-08 6.08212e-07 -1.22036e-06  -1.8673e-07 7.46828e-07 -1.10711e-06  -1.61476e-07 5.11363e-07 -1.18895e-06  -4.26666e-07 6.00554e-07 -1.3298e-06  6.09911e-07 -2.19386e-08 -1.22068e-06  1.68394e-07 1.69025e-07 -9.73215e-07  -3.97294e-08 2.85942e-07 -8.018e-07  -1.43487e-07 1.45394e-07 -9.90105e-07  -5.03398e-07 2.73287e-07 -1.18124e-06  7.45093e-07 -1.85732e-07 -1.10692e-06  2.85842e-07 -3.79484e-08 -8.01792e-07  2.29321e-08 2.25215e-08 -5.50714e-07  -2.49612e-07 3.97219e-08 -8.06809e-07  -7.20192e-07 1.91982e-07 -1.10993e-06  5.0885e-07 -1.61444e-07 -1.18828e-06  1.44846e-07 -1.44302e-07 -9.9033e-07  4.12436e-08 -2.50444e-07 -8.06672e-07  -1.55643e-07 -1.56022e-07 -9.78065e-07  -5.96519e-07 8.12008e-09 -1.2195e-06  6.00334e-07 -4.27751e-07 -1.32908e-06  2.73275e-07 -5.04102e-07 -1.18181e-06  1.94734e-07 -7.23104e-07 -1.1108e-06  7.85387e-09 -6.03559e-07 -1.22032e-06  -3.32243e-07 -3.36428e-07 -1.32475e-06  
            </DataArray>
            <DataArray type="Float64" Name="Traction" NumberOfComponents="3" format="ascii">
               -1.39158e-06 -1.41462e-06 -1.41259e-05  -3.98415e-07 -2.43712e-06 -1.41259e-05  3.88781e-07 -3.20665e-06 -1.41259e-05  4.8234e-07 -2.16187e-06 -1.41259e-05  1.45597e-06 -1.81246e-06 -1.41259e-05  -2.44437e-06 -4.16304e-07 -1.41259e-05  -9.81619e-07 -9.73635e-07 -1.41259e-05  6.28334e-07 -1.56122e-06 -1.41259e-05  9.15408e-07 -9.09939e-07 -1.41259e-05  2.135e-06 -7.18375e-07 -1.41259e-05  -3.24092e-06 3.93072e-07 -1.41259e-05  -1.5892e-06 6.25114e-07 -1.41259e-05  7.30719e-07 7.28502e-07 -1.41259e-05  1.55179e-06 3.85053e-07 -1.41259e-05  3.23427e-06 2.08218e-08 -1.41259e-05  -2.16882e-06 4.94717e-07 -1.41259e-05  -9.17193e-07 9.07529e-07 -1.41259e-05  3.81926e-07 1.53765e-06 -1.41259e-05  9.43033e-07 9.48166e-07 -1.41259e-05  2.41532e-06 3.66639e-07 -1.41259e-05  -1.77272e-06 1.47577e-06 -1.41259e-05  -6.7763e-07 2.12367e-06 -1.41259e-05  8.77332e-08 3.20782e-06 -1.41259e-05  4.69257e-07 2.43583e-06 -1.41259e-05  1.42586e-06 1.34433e-06 -1.41259e-05  
            </DataArray>
         </PointData> 
      </Piece>
   </UnstructuredGrid> 
</VTKFile>
