<?xml version="1.0"?>
<VTKFile type="UnstructuredGrid" version="0.1" byte_order="LittleEndian">
   <UnstructuredGrid>
      <Piece NumberOfPoints="25" NumberOfCells="0" > 
         <Points> 
            <DataArray type="Float64" Name="Position" NumberOfComponents="3" format="ascii"> 
               0  0  20  
               0.75  0  20  
               1.5  0  20  
               2.25  0  20  
               3  0  20  
               0  0.75  20  
               0.75  0.75  20  
               1.5  0.75  20  
               2.25  0.75  20  
               3  0.75  20  
               0  1.5  20  
               0.75  1.5  20  
               1.5  1.5  20  
               2.25  1.5  20  
               3  1.5  20  
               0  2.25  20  
               0.75  2.25  20  
               1.5  2.25  20  
               2.25  2.25  20  
               3  2.25  20  
               0  3  20  
               0.75  3  20  
               1.5  3  20  
               2.25  3  20  
               3  3  20  
            </DataArray>
         </Points> 

         <Cells>
            <DataArray type="Int32" Name="connectivity" NumberOfComponents="1" format="ascii">
               
            </DataArray> 
            <DataArray type="Int32" Name="offsets" NumberOfComponents="1" format="ascii">
               
            </DataArray>
            <DataArray type="UInt8"  Name="types" NumberOfComponents="1" format="ascii">
               
            </DataArray>
         </Cells>
         <PointData Scalars="Rank " Vectors="Displacement Velocity Traction ">
            <DataArray type="UInt32" Name="Rank" NumberOfComponents="1" format="ascii">
               0 0 0 0 0 0 0 0 0 0 0 0 0 0 0 0 0 0 0 0 0 0 0 0 0 
            </DataArray>
            <DataArray type="Float64" Name="Displacement" NumberOfComponents="3" format="ascii">
               0 0 0  0 0 0  0 0 0  0 0 0  0 0 0  0 0 0  0 0 0  0 0 0  0 0 0  0 0 0  0 0 0  0 0 0  0 0 0  0 0 0  0 0 0  0 0 0  0 0 0  0 0 0  0 0 0  0 0 0  0 0 0  0 0 0  0 0 0  0 0 0  0 0 0  
            </DataArray>
            <DataArray type="Float64" Name="Velocity" NumberOfComponents="3" format="ascii">
               0 0 0  0 0 0  0 0 0  0 0 0  0 0 0  0 0 0  0 0 0  0 0 0  0 0 0  0 0 0  0 0 0  0 0 0  0 0 0  0 0 0  0 0 0  0 0 0  0 0 0  0 0 0  0 0 0  0 0 0  0 0 0  0 0 0  0 0 0  0 0 0  0 0 0  
            </DataArray>
            <DataArray type="Float64" Name="Traction" NumberOfComponents="3" format="ascii">
               -6.00569e-07 -6.11991e-07 -1.405e-05  -1.70522e-07 -1.03931e-06 -1.405e-05  1.33857e-07 -1.44125e-06 -1.405e-05  1.69429e-07 -9.79385e-07 -1.405e-05  5.96125e-07 -6.85341e-07 -1.405e-05  -1.042e-06 -1.79829e-07 -1.405e-05  -4.14502e-07 -4.11311e-07 -1.405e-05  2.82312e-07 -6.81718e-07 -1.405e-05  3.9861e-07 -3.96728e-07 -1.405e-05  9.70845e-07 -2.33691e-07 -1.405e-05  -1.45198e-06 1.33906e-07 -1.405e-05  -6.89931e-07 2.8153e-07 -1.405e-05  3.80567e-07 3.78669e-07 -1.405e-05  6.82243e-07 2.20061e-07 -1.405e-05  1.45442e-06 6.16839e-08 -1.405e-05  -9.81483e-07 1.72101e-07 -1.405e-05  -3.98469e-07 3.96373e-07 -1.405e-05  2.18958e-07 6.77108e-07 -1.405e-05  4.03234e-07 4.06103e-07 -1.405e-05  1.03647e-06 1.6304e-07 -1.405e-05  -6.74573e-07 6.01066e-07 -1.405e-05  -2.22479e-07 9.68102e-07 -1.405e-05  8.29792e-08 1.44446e-06 -1.405e-05  1.96555e-07 1.04324e-06 -1.405e-05  6.11457e-07 5.8496e-07 -1.405e-05  
            </DataArray>
         </PointData> 
      </Piece>
   </UnstructuredGrid> 
</VTKFile>
