<?xml version="1.0"?>
<VTKFile type="UnstructuredGrid" version="0.1" byte_order="LittleEndian">
   <UnstructuredGrid>
      <Piece NumberOfPoints="25" NumberOfCells="0" > 
         <Points> 
            <DataArray type="Float64" Name="Position" NumberOfComponents="3" format="ascii"> 
               0  0  15  
               0.75  0  15  
               1.5  0  15  
               2.25  0  15  
               3  0  15  
               0  0.75  15  
               0.75  0.75  15  
               1.5  0.75  15  
               2.25  0.75  15  
               3  0.75  15  
               0  1.5  15  
               0.75  1.5  15  
               1.5  1.5  15  
               2.25  1.5  15  
               3  1.5  15  
               0  2.25  15  
               0.75  2.25  15  
               1.5  2.25  15  
               2.25  2.25  15  
               3  2.25  15  
               0  3  15  
               0.75  3  15  
               1.5  3  15  
               2.25  3  15  
               3  3  15  
            </DataArray>
         </Points> 

         <Cells>
            <DataArray type="Int32" Name="connectivity" NumberOfComponents="1" format="ascii">
               
            </DataArray> 
            <DataArray type="Int32" Name="offsets" NumberOfComponents="1" format="ascii">
               
            </DataArray>
            <DataArray type="UInt8"  Name="types" NumberOfComponents="1" format="ascii">
               
            </DataArray>
         </Cells>
         <PointData Scalars="Rank " Vectors="Displacement Velocity Traction ">
            <DataArray type="UInt32" Name="Rank" NumberOfComponents="1" format="ascii">
               0 0 0 0 0 0 0 0 0 0 0 0 0 0 0 0 0 0 0 0 0 0 0 0 0 
            </DataArray>
            <DataArray type="Float64" Name="Displacement" NumberOfComponents="3" format="ascii">
               0.00133838 0.00142422 -0.00160296  0.00124512 0.000148257 -0.00160119  0.000924546 -0.000259153 -0.00154017  0.000558279 -0.000274965 -0.00160777  0.000418358 -0.00101547 -0.00161646  -1.8426e-05 0.00133125 -0.00159415  -2.56135e-05 0.000138051 -0.00146691  -0.000249366 -0.000146142 -0.00136232  -0.000461097 -0.000270513 -0.00152461  -0.000445973 -0.00116633 -0.0015731  -0.000422508 0.00102024 -0.00153421  -0.000309488 -9.81966e-05 -0.00136302  -0.000457034 -0.000303524 -0.00116424  -0.0005964 -0.00051048 -0.00136854  -0.000480097 -0.0015339 -0.00153505  -0.000463424 0.000661453 -0.00160422  -0.000452934 -0.000322367 -0.00152651  -0.000676074 -0.000451198 -0.00136916  -0.000901772 -0.000753323 -0.0014792  -0.000910764 -0.0018339 -0.00159692  -0.0012207 0.000521645 -0.00160589  -0.00136274 -0.000315496 -0.00156895  -0.00171049 -0.00034545 -0.00152967  -0.00199098 -0.000774306 -0.00159039  -0.00206784 -0.00191895 -0.00159405  
            </DataArray>
            <DataArray type="Float64" Name="Velocity" NumberOfComponents="3" format="ascii">
               0.000478012 0.000621407 -0.00155364  0.000424547 2.33432e-05 -0.0015678  0.000273137 -0.000209913 -0.00152474  0.000109177 -0.00018913 -0.00158466  4.19798e-05 -0.000515975 -0.00157697  -0.000121864 0.000566772 -0.00156017  -0.000137061 6.53624e-06 -0.00146484  -0.000267776 -0.000156692 -0.00138037  -0.000390446 -0.00019209 -0.00152384  -0.000390093 -0.000601531 -0.00155472  -0.000335738 0.000413886 -0.00151512  -0.000282397 -0.000126065 -0.00137968  -0.00035059 -0.000223402 -0.00120828  -0.000422356 -0.000309638 -0.00138763  -0.000370749 -0.000789637 -0.00152538  -0.000321122 0.000247898 -0.00157566  -0.000324913 -0.000246466 -0.00152413  -0.000448041 -0.000288998 -0.00138754  -0.000578977 -0.000431735 -0.00147911  -0.000596638 -0.00094623 -0.00157147  -0.000680776 0.000178916 -0.00155575  -0.000765781 -0.000242662 -0.00154657  -0.000956063 -0.000230413 -0.0015163  -0.00111795 -0.000443321 -0.00156241  -0.0011742 -0.000999111 -0.00155272  
            </DataArray>
            <DataArray type="Float64" Name="Traction" NumberOfComponents="3" format="ascii">
               0 0 0  0 0 0  0 0 0  0 0 0  0 0 0  0 0 0  0 0 0  0 0 0  0 0 0  0 0 0  0 0 0  0 0 0  0 0 0  0 0 0  0 0 0  0 0 0  0 0 0  0 0 0  0 0 0  0 0 0  0 0 0  0 0 0  0 0 0  0 0 0  0 0 0  
            </DataArray>
         </PointData> 
      </Piece>
   </UnstructuredGrid> 
</VTKFile>
