<?xml version="1.0"?>
<VTKFile type="UnstructuredGrid" version="0.1" byte_order="LittleEndian">
   <UnstructuredGrid>
      <Piece NumberOfPoints="25" NumberOfCells="0" > 
         <Points> 
            <DataArray type="Float64" Name="Position" NumberOfComponents="3" format="ascii"> 
               0  0  15  
               0.75  0  15  
               1.5  0  15  
               2.25  0  15  
               3  0  15  
               0  0.75  15  
               0.75  0.75  15  
               1.5  0.75  15  
               2.25  0.75  15  
               3  0.75  15  
               0  1.5  15  
               0.75  1.5  15  
               1.5  1.5  15  
               2.25  1.5  15  
               3  1.5  15  
               0  2.25  15  
               0.75  2.25  15  
               1.5  2.25  15  
               2.25  2.25  15  
               3  2.25  15  
               0  3  15  
               0.75  3  15  
               1.5  3  15  
               2.25  3  15  
               3  3  15  
            </DataArray>
         </Points> 

         <Cells>
            <DataArray type="Int32" Name="connectivity" NumberOfComponents="1" format="ascii">
               
            </DataArray> 
            <DataArray type="Int32" Name="offsets" NumberOfComponents="1" format="ascii">
               
            </DataArray>
            <DataArray type="UInt8"  Name="types" NumberOfComponents="1" format="ascii">
               
            </DataArray>
         </Cells>
         <PointData Scalars="Rank " Vectors="Displacement Velocity Traction ">
            <DataArray type="UInt32" Name="Rank" NumberOfComponents="1" format="ascii">
               0 0 0 0 0 0 0 0 0 0 0 0 0 0 0 0 0 0 0 0 0 0 0 0 0 
            </DataArray>
            <DataArray type="Float64" Name="Displacement" NumberOfComponents="3" format="ascii">
               0.000814574 0.00126913 -0.0908627  -0.00129749 0.00262381 -0.0833207  -0.00100581 0.00169721 -0.0759614  0.000800882 0.000413914 -0.0850524  0.000168336 0.00338392 -0.0922228  0.0021052 -0.000863688 -0.0833375  -0.000429649 7.77056e-05 -0.0669549  -0.00146527 -5.26591e-05 -0.0491719  -0.00130585 -0.00142864 -0.0672345  -0.00256094 0.000827477 -0.0846606  0.0012426 -0.000568738 -0.0759651  -0.0005131 -0.000977199 -0.0491668  -0.00034961 0.000114103 -0.0207523  -0.00101298 -0.000991665 -0.04929  -0.00296637 -0.00012952 -0.075928  -9.10455e-05 0.00125198 -0.0850441  -0.00192581 -0.000825638 -0.0672237  -0.00149389 -0.000548939 -0.0492859  -0.00230884 -0.0018058 -0.0672245  -0.0048828 -0.000951338 -0.0832606  0.00279944 0.000612397 -0.0922203  0.00026166 -0.00207811 -0.0846572  -0.000695203 -0.00249671 -0.0759313  -0.00151877 -0.00438977 -0.083268  -0.00353359 -0.00297866 -0.0906158  
            </DataArray>
            <DataArray type="Float64" Name="Velocity" NumberOfComponents="3" format="ascii">
               -0.00451247 -0.00428941 -0.537724  -0.0243215 0.0212285 -0.482053  -0.0163582 0.0126511 -0.432653  0.0078349 0.00631152 -0.506662  0.00554742 0.0498194 -0.558551  0.0209097 -0.0243058 -0.482097  -0.0014932 -0.00123152 -0.384869  -0.00676988 0.00207494 -0.253857  0.00276938 -0.00766047 -0.379416  -0.00537004 0.026234 -0.506645  0.0126325 -0.0163001 -0.432665  0.00197481 -0.00653832 -0.253856  0.0111669 0.01137 -0.0443736  0.00980275 0.00512291 -0.253829  -0.00529076 0.0221574 -0.432725  0.00613033 0.00803923 -0.506678  -0.00778754 0.00302652 -0.379407  0.00488553 0.010004 -0.253834  0.00212666 0.00238326 -0.385597  -0.0217798 0.0203728 -0.482095  0.0493969 0.0056736 -0.558602  0.0259877 -0.00509258 -0.50665  0.0218631 -0.00507368 -0.432741  0.0200469 -0.0216557 -0.482092  0.00317734 0.00336125 -0.537303  
            </DataArray>
            <DataArray type="Float64" Name="Traction" NumberOfComponents="3" format="ascii">
               -0.355975 -0.353549 11.9965  -0.0774701 -0.814351 11.9965  0.152762 -1.44298 11.9965  0.0275226 -0.824621 11.9965  0.276647 -0.383143 11.9965  -0.812879 -0.0731253 11.9965  -0.43259 -0.428814 11.9965  0.549955 -1.06502 11.9965  0.40344 -0.428144 11.9965  0.804261 -0.124679 11.9965  -1.43744 0.155785 11.9965  -1.07118 0.552606 11.9965  1.21758 1.22314 11.9965  0.999093 0.571987 11.9965  1.43175 0.114532 11.9965  -0.820386 0.0283774 11.9965  -0.429023 0.405029 11.9965  0.569882 1.00368 11.9965  0.404101 0.407703 11.9965  0.81112 0.0587007 11.9965  -0.379932 0.277285 11.9965  -0.123098 0.807235 11.9965  0.114455 1.43852 11.9965  0.0567013 0.816041 11.9965  0.350199 0.352877 11.9965  
            </DataArray>
         </PointData> 
      </Piece>
   </UnstructuredGrid> 
</VTKFile>
