<?xml version="1.0"?>
<VTKFile type="UnstructuredGrid" version="0.1" byte_order="LittleEndian">
   <UnstructuredGrid>
      <Piece NumberOfPoints="25" NumberOfCells="0" > 
         <Points> 
            <DataArray type="Float64" Name="Position" NumberOfComponents="3" format="ascii"> 
               0  0  15  
               0.75  0  15  
               1.5  0  15  
               2.25  0  15  
               3  0  15  
               0  0.75  15  
               0.75  0.75  15  
               1.5  0.75  15  
               2.25  0.75  15  
               3  0.75  15  
               0  1.5  15  
               0.75  1.5  15  
               1.5  1.5  15  
               2.25  1.5  15  
               3  1.5  15  
               0  2.25  15  
               0.75  2.25  15  
               1.5  2.25  15  
               2.25  2.25  15  
               3  2.25  15  
               0  3  15  
               0.75  3  15  
               1.5  3  15  
               2.25  3  15  
               3  3  15  
            </DataArray>
         </Points> 

         <Cells>
            <DataArray type="Int32" Name="connectivity" NumberOfComponents="1" format="ascii">
               
            </DataArray> 
            <DataArray type="Int32" Name="offsets" NumberOfComponents="1" format="ascii">
               
            </DataArray>
            <DataArray type="UInt8"  Name="types" NumberOfComponents="1" format="ascii">
               
            </DataArray>
         </Cells>
         <PointData Scalars="Rank " Vectors="Displacement Velocity Traction ">
            <DataArray type="UInt32" Name="Rank" NumberOfComponents="1" format="ascii">
               0 0 0 0 0 0 0 0 0 0 0 0 0 0 0 0 0 0 0 0 0 0 0 0 0 
            </DataArray>
            <DataArray type="Float64" Name="Displacement" NumberOfComponents="3" format="ascii">
               7.48248e-10 8.09967e-10 -1.95295e-09  6.85074e-10 -1.45272e-10 -1.78334e-09  3.66906e-10 2.13028e-10 -1.61767e-09  1.1698e-10 -3.58497e-11 -1.7832e-09  1.21058e-10 -1.29911e-10 -1.95206e-09  -1.27375e-10 7.88597e-10 -1.78333e-09  -1.57966e-10 -1.86092e-10 -1.32905e-09  -7.34686e-11 2.51179e-10 -8.79964e-10  1.08889e-10 -6.47441e-12 -1.32897e-09  1.63164e-10 -8.93691e-11 -1.7832e-09  2.64398e-10 3.42695e-10 -1.61767e-09  2.88699e-10 -5.26364e-11 -8.79935e-10  -2.75157e-11 -1.47013e-11 -1.49837e-10  -4.38832e-10 1.6359e-10 -8.79998e-10  -5.28756e-10 -4.92054e-10 -1.61783e-09  -1.07711e-11 1.23067e-10 -1.78319e-09  -2.88224e-11 1.11863e-10 -1.32897e-09  1.65626e-10 -4.03339e-10 -8.8003e-10  2.17101e-10 1.5151e-10 -1.32909e-09  4.00581e-11 -6.83558e-10 -1.78338e-09  -2.12249e-10 9.25607e-11 -1.95205e-09  -1.06815e-10 1.17275e-10 -1.78324e-09  -6.53048e-10 -3.83458e-10 -1.61782e-09  -9.49619e-10 -3.66536e-11 -1.78342e-09  -6.39995e-10 -5.87644e-10 -1.95277e-09  
            </DataArray>
            <DataArray type="Float64" Name="Velocity" NumberOfComponents="3" format="ascii">
               8.18506e-09 9.02784e-09 -2.04761e-08  7.15051e-09 -1.65821e-09 -1.85908e-08  4.02451e-09 2.59623e-09 -1.67457e-08  1.52446e-09 -2.78066e-10 -1.85868e-08  1.01204e-09 -8.84502e-10 -2.04619e-08  -1.42699e-09 8.24826e-09 -1.85907e-08  -1.61118e-09 -1.90257e-09 -1.35374e-08  -7.27558e-10 2.44718e-09 -8.53552e-09  1.09368e-09 -2.98209e-11 -1.35356e-08  1.66552e-09 -1.27195e-09 -1.85874e-08  3.21035e-09 3.84284e-09 -1.67456e-08  2.8792e-09 -5.30349e-10 -8.53524e-09  -3.73972e-10 -1.66847e-10 -4.01118e-10  -4.49999e-09 1.59314e-09 -8.53659e-09  -5.84447e-09 -5.17724e-09 -1.67487e-08  -1.42531e-10 1.54512e-09 -1.85866e-08  -2.03012e-10 1.11093e-09 -1.35356e-08  1.64275e-09 -4.09733e-09 -8.53692e-09  2.22765e-09 1.58576e-09 -1.35382e-08  7.22955e-10 -6.94402e-09 -1.85914e-08  -1.69683e-09 7.61706e-10 -2.04617e-08  -1.55604e-09 1.28939e-09 -1.85878e-08  -6.92576e-09 -4.37593e-09 -1.67487e-08  -9.83103e-09 -2.27618e-10 -1.85919e-08  -7.7265e-09 -6.84059e-09 -2.04738e-08  
            </DataArray>
            <DataArray type="Float64" Name="Traction" NumberOfComponents="3" format="ascii">
               0 0 0  0 0 0  0 0 0  0 0 0  0 0 0  0 0 0  0 0 0  0 0 0  0 0 0  0 0 0  0 0 0  0 0 0  0 0 0  0 0 0  0 0 0  0 0 0  0 0 0  0 0 0  0 0 0  0 0 0  0 0 0  0 0 0  0 0 0  0 0 0  0 0 0  
            </DataArray>
         </PointData> 
      </Piece>
   </UnstructuredGrid> 
</VTKFile>
