<?xml version="1.0"?>
<VTKFile type="UnstructuredGrid" version="0.1" byte_order="LittleEndian">
   <UnstructuredGrid>
      <Piece NumberOfPoints="25" NumberOfCells="0" > 
         <Points> 
            <DataArray type="Float64" Name="Position" NumberOfComponents="3" format="ascii"> 
               0  0  15  
               0.75  0  15  
               1.5  0  15  
               2.25  0  15  
               3  0  15  
               0  0.75  15  
               0.75  0.75  15  
               1.5  0.75  15  
               2.25  0.75  15  
               3  0.75  15  
               0  1.5  15  
               0.75  1.5  15  
               1.5  1.5  15  
               2.25  1.5  15  
               3  1.5  15  
               0  2.25  15  
               0.75  2.25  15  
               1.5  2.25  15  
               2.25  2.25  15  
               3  2.25  15  
               0  3  15  
               0.75  3  15  
               1.5  3  15  
               2.25  3  15  
               3  3  15  
            </DataArray>
         </Points> 

         <Cells>
            <DataArray type="Int32" Name="connectivity" NumberOfComponents="1" format="ascii">
               
            </DataArray> 
            <DataArray type="Int32" Name="offsets" NumberOfComponents="1" format="ascii">
               
            </DataArray>
            <DataArray type="UInt8"  Name="types" NumberOfComponents="1" format="ascii">
               
            </DataArray>
         </Cells>
         <PointData Scalars="Rank " Vectors="Displacement Velocity Traction ">
            <DataArray type="UInt32" Name="Rank" NumberOfComponents="1" format="ascii">
               0 0 0 0 0 0 0 0 0 0 0 0 0 0 0 0 0 0 0 0 0 0 0 0 0 
            </DataArray>
            <DataArray type="Float64" Name="Displacement" NumberOfComponents="3" format="ascii">
               6.63049e-06 4.37561e-06 -3.75038e-06  6.53347e-06 -1.97327e-07 -3.72227e-06  5.67209e-06 -9.77478e-07 -3.56423e-06  4.75191e-06 2.85186e-07 -3.69411e-06  4.52729e-06 2.03246e-07 -3.74512e-06  3.70634e-07 3.97693e-06 -3.7218e-06  5.16724e-07 -1.38965e-07 -3.39323e-06  3.44824e-07 -6.94394e-07 -3.21132e-06  7.47982e-09 4.41383e-07 -3.5431e-06  -5.74434e-08 -1.71198e-07 -3.57986e-06  1.33586e-06 3.25904e-06 -3.55919e-06  1.08273e-06 3.36573e-08 -3.21177e-06  -1.61602e-07 -8.65365e-07 -2.8453e-06  -1.5619e-06 7.38675e-07 -3.23377e-06  -2.22085e-06 -6.75949e-07 -3.54024e-06  1.20303e-06 2.63676e-06 -3.68336e-06  1.09851e-06 2.24959e-07 -3.54403e-06  9.05682e-07 -1.33184e-06 -3.23008e-06  8.81534e-07 8.86404e-07 -3.42662e-06  6.66182e-07 -2.51239e-07 -3.70467e-06  -2.87166e-06 2.31376e-06 -3.73947e-06  -3.20012e-06 3.77362e-07 -3.58922e-06  -4.24243e-06 -1.43808e-06 -3.54936e-06  -4.37645e-06 6.04946e-07 -3.71462e-06  -3.85891e-06 9.04839e-08 -3.73108e-06  
            </DataArray>
            <DataArray type="Float64" Name="Velocity" NumberOfComponents="3" format="ascii">
               9.09373e-06 3.28624e-06 -2.00153e-06  9.09677e-06 -2.15414e-07 -2.31379e-06  8.0609e-06 -1.18023e-06 -2.47892e-06  6.88596e-06 7.17646e-07 -2.43433e-06  6.64473e-06 1.23309e-06 -1.96597e-06  1.35566e-06 3.07569e-06 -2.30623e-06  1.47055e-06 -5.53363e-08 -2.6474e-06  1.24452e-06 -7.84882e-07 -2.93971e-06  7.36127e-07 8.56042e-07 -2.85982e-06  6.54674e-07 8.00818e-07 -2.25587e-06  2.04637e-06 2.92891e-06 -2.46737e-06  1.62518e-06 1.45176e-07 -2.94226e-06  2.69717e-07 -1.03545e-06 -3.18743e-06  -1.28487e-06 9.93284e-07 -2.96181e-06  -1.98233e-06 2.20108e-07 -2.41645e-06  2.02902e-06 2.66167e-06 -2.41481e-06  1.83819e-06 2.49819e-07 -2.86027e-06  1.55538e-06 -1.52564e-06 -2.9566e-06  1.57236e-06 1.13246e-06 -2.68841e-06  1.35411e-06 9.03602e-07 -2.28552e-06  -2.64077e-06 2.45481e-06 -1.96005e-06  -2.83049e-06 3.05622e-07 -2.2733e-06  -3.40375e-06 -1.85625e-06 -2.43233e-06  -2.7839e-06 7.61103e-07 -2.30013e-06  -1.97343e-06 1.56922e-06 -1.94706e-06  
            </DataArray>
            <DataArray type="Float64" Name="Traction" NumberOfComponents="3" format="ascii">
               0 0 0  0 0 0  0 0 0  0 0 0  0 0 0  0 0 0  0 0 0  0 0 0  0 0 0  0 0 0  0 0 0  0 0 0  0 0 0  0 0 0  0 0 0  0 0 0  0 0 0  0 0 0  0 0 0  0 0 0  0 0 0  0 0 0  0 0 0  0 0 0  0 0 0  
            </DataArray>
         </PointData> 
      </Piece>
   </UnstructuredGrid> 
</VTKFile>
