<?xml version="1.0"?>
<VTKFile type="UnstructuredGrid" version="0.1" byte_order="LittleEndian">
   <UnstructuredGrid>
      <Piece NumberOfPoints="25" NumberOfCells="0" > 
         <Points> 
            <DataArray type="Float64" Name="Position" NumberOfComponents="3" format="ascii"> 
               0  0  20  
               0.75  0  20  
               1.5  0  20  
               2.25  0  20  
               3  0  20  
               0  0.75  20  
               0.75  0.75  20  
               1.5  0.75  20  
               2.25  0.75  20  
               3  0.75  20  
               0  1.5  20  
               0.75  1.5  20  
               1.5  1.5  20  
               2.25  1.5  20  
               3  1.5  20  
               0  2.25  20  
               0.75  2.25  20  
               1.5  2.25  20  
               2.25  2.25  20  
               3  2.25  20  
               0  3  20  
               0.75  3  20  
               1.5  3  20  
               2.25  3  20  
               3  3  20  
            </DataArray>
         </Points> 

         <Cells>
            <DataArray type="Int32" Name="connectivity" NumberOfComponents="1" format="ascii">
               
            </DataArray> 
            <DataArray type="Int32" Name="offsets" NumberOfComponents="1" format="ascii">
               
            </DataArray>
            <DataArray type="UInt8"  Name="types" NumberOfComponents="1" format="ascii">
               
            </DataArray>
         </Cells>
         <PointData Scalars="Rank " Vectors="Displacement Velocity Traction ">
            <DataArray type="UInt32" Name="Rank" NumberOfComponents="1" format="ascii">
               0 0 0 0 0 0 0 0 0 0 0 0 0 0 0 0 0 0 0 0 0 0 0 0 0 
            </DataArray>
            <DataArray type="Float64" Name="Displacement" NumberOfComponents="3" format="ascii">
               4.95203e-07 4.94609e-07 -2.00429e-06  -3.10319e-08 9.09015e-07 -1.88728e-06  -3.08126e-07 1.09758e-06 -1.73312e-06  -2.64777e-07 7.62804e-07 -1.8436e-06  -6.3242e-07 9.20017e-07 -2.01404e-06  9.10169e-07 -2.98499e-08 -1.88789e-06  2.61327e-07 2.62732e-07 -1.55549e-06  -6.73888e-08 4.32489e-07 -1.32839e-06  -2.3325e-07 2.43447e-07 -1.59463e-06  -7.45032e-07 4.41221e-07 -1.81979e-06  1.09327e-06 -3.05511e-07 -1.73232e-06  4.32012e-07 -6.31657e-08 -1.32835e-06  2.50996e-08 2.434e-08 -9.78068e-07  -3.82349e-07 6.42334e-08 -1.33696e-06  -1.05266e-06 3.10175e-07 -1.73364e-06  7.56853e-07 -2.64832e-07 -1.84158e-06  2.41985e-07 -2.34914e-07 -1.59505e-06  6.74847e-08 -3.84601e-07 -1.33625e-06  -2.40767e-07 -2.42702e-07 -1.56546e-06  -8.85079e-07 1.12736e-08 -1.88379e-06  9.18048e-07 -6.34434e-07 -2.01241e-06  4.41317e-07 -7.46991e-07 -1.82148e-06  3.15751e-07 -1.0596e-06 -1.73567e-06  1.13501e-08 -8.99692e-07 -1.88602e-06  -5.07367e-07 -5.14665e-07 -2.00616e-06  
            </DataArray>
            <DataArray type="Float64" Name="Velocity" NumberOfComponents="3" format="ascii">
               5.59912e-07 5.64231e-07 -2.38433e-06  -3.94953e-08 1.00987e-06 -2.36209e-06  -4.98519e-07 1.12082e-06 -2.23699e-06  -4.20122e-07 8.05303e-07 -2.3154e-06  -7.12701e-07 1.18732e-06 -2.39335e-06  1.00642e-06 -3.64142e-08 -2.3631e-06  3.5207e-07 3.55686e-07 -2.12743e-06  -1.17626e-07 5.47447e-07 -2.01178e-06  -3.39274e-07 3.72079e-07 -2.21983e-06  -7.62972e-07 6.92128e-07 -2.24804e-06  1.10962e-06 -4.91483e-07 -2.23432e-06  5.45701e-07 -1.07357e-07 -2.01174e-06  9.9231e-09 8.51329e-09 -1.78947e-06  -4.89693e-07 1.03217e-07 -2.02666e-06  -1.04475e-06 4.8679e-07 -2.22656e-06  7.90883e-07 -4.20454e-07 -2.30957e-06  3.68114e-07 -3.42664e-07 -2.2206e-06  1.10473e-07 -4.95604e-07 -2.02429e-06  -3.20205e-07 -3.2671e-07 -2.14863e-06  -9.59019e-07 1.61005e-08 -2.35138e-06  1.1797e-06 -7.16737e-07 -2.38962e-06  6.9242e-07 -7.68401e-07 -2.25288e-06  4.98461e-07 -1.06171e-06 -2.23152e-06  1.71749e-08 -9.90262e-07 -2.35732e-06  -5.83583e-07 -5.9602e-07 -2.3812e-06  
            </DataArray>
            <DataArray type="Float64" Name="Traction" NumberOfComponents="3" format="ascii">
               -3.85576e-06 -3.80935e-06 -2.61483e-05  -1.08335e-06 -6.92306e-06 -2.61483e-05  1.59973e-06 -8.2276e-06 -2.61483e-05  1.71543e-06 -5.41167e-06 -2.61483e-05  4.10686e-06 -6.07545e-06 -2.61483e-05  -6.94818e-06 -1.01559e-06 -2.61483e-05  -2.80218e-06 -2.77255e-06 -2.61483e-05  1.82782e-06 -4.23183e-06 -2.61483e-05  2.50723e-06 -2.56407e-06 -2.61483e-05  5.17979e-06 -2.82814e-06 -2.61483e-05  -8.38262e-06 1.68928e-06 -2.61483e-05  -4.3647e-06 1.80754e-06 -2.61483e-05  1.61483e-06 1.6232e-06 -2.61483e-05  4.20116e-06 5.19039e-07 -2.61483e-05  8.25568e-06 -5.848e-07 -2.61483e-05  -5.43848e-06 1.82072e-06 -2.61483e-05  -2.60816e-06 2.47546e-06 -2.61483e-05  5.04706e-07 4.15217e-06 -2.61483e-05  2.61139e-06 2.62551e-06 -2.61483e-05  6.70296e-06 8.41295e-07 -2.61483e-05  -5.85463e-06 4.24543e-06 -2.61483e-05  -2.62882e-06 5.13063e-06 -2.61483e-05  -3.12998e-07 8.18014e-06 -2.61483e-05  1.23057e-06 6.81633e-06 -2.61483e-05  3.90658e-06 3.6167e-06 -2.61483e-05  
            </DataArray>
         </PointData> 
      </Piece>
   </UnstructuredGrid> 
</VTKFile>
