<?xml version="1.0"?>
<VTKFile type="UnstructuredGrid" version="0.1" byte_order="LittleEndian">
   <UnstructuredGrid>
      <Piece NumberOfPoints="25" NumberOfCells="0" > 
         <Points> 
            <DataArray type="Float64" Name="Position" NumberOfComponents="3" format="ascii"> 
               0  0  20  
               0.75  0  20  
               1.5  0  20  
               2.25  0  20  
               3  0  20  
               0  0.75  20  
               0.75  0.75  20  
               1.5  0.75  20  
               2.25  0.75  20  
               3  0.75  20  
               0  1.5  20  
               0.75  1.5  20  
               1.5  1.5  20  
               2.25  1.5  20  
               3  1.5  20  
               0  2.25  20  
               0.75  2.25  20  
               1.5  2.25  20  
               2.25  2.25  20  
               3  2.25  20  
               0  3  20  
               0.75  3  20  
               1.5  3  20  
               2.25  3  20  
               3  3  20  
            </DataArray>
         </Points> 

         <Cells>
            <DataArray type="Int32" Name="connectivity" NumberOfComponents="1" format="ascii">
               
            </DataArray> 
            <DataArray type="Int32" Name="offsets" NumberOfComponents="1" format="ascii">
               
            </DataArray>
            <DataArray type="UInt8"  Name="types" NumberOfComponents="1" format="ascii">
               
            </DataArray>
         </Cells>
         <PointData Scalars="Rank " Vectors="Displacement Velocity Traction ">
            <DataArray type="UInt32" Name="Rank" NumberOfComponents="1" format="ascii">
               0 0 0 0 0 0 0 0 0 0 0 0 0 0 0 0 0 0 0 0 0 0 0 0 0 
            </DataArray>
            <DataArray type="Float64" Name="Displacement" NumberOfComponents="3" format="ascii">
               -2.48464e-06 -2.78804e-06 1.66476e-06  4.81952e-07 -3.48271e-06 1.37956e-06  2.18962e-06 -2.40874e-06 1.28341e-06  2.37494e-06 -2.25714e-06 1.19479e-06  3.35302e-06 -4.22655e-06 1.53063e-06  -3.41842e-06 1.17988e-07 1.41082e-06  -1.34241e-06 -1.50784e-06 7.94851e-07  3.83117e-07 -1.74766e-06 1.1478e-06  1.52622e-06 -1.5781e-06 1.16907e-06  2.28669e-06 -2.55595e-06 7.5808e-07  -2.38718e-06 1.93706e-06 1.43418e-06  -1.65634e-06 2.0038e-07 1.19066e-06  6.79834e-08 1.01484e-08 1.15753e-06  1.34672e-06 -7.92915e-08 1.11921e-06  1.83511e-06 -1.41839e-06 8.56014e-07  -2.41667e-06 2.22185e-06 1.39389e-06  -1.63955e-06 1.49543e-06 1.17693e-06  -1.40239e-07 1.58026e-06 1.12292e-06  1.09886e-06 1.46908e-06 8.95996e-07  2.5231e-06 1.17869e-07 8.89099e-07  -4.68957e-06 3.27296e-06 1.86305e-06  -3.00037e-06 2.40138e-06 8.53219e-07  -1.68924e-06 2.243e-06 1.10698e-06  -1.23012e-07 3.07216e-06 1.22136e-06  2.14856e-06 2.46222e-06 9.1399e-07  
            </DataArray>
            <DataArray type="Float64" Name="Velocity" NumberOfComponents="3" format="ascii">
               1.47871e-06 8.44496e-07 -6.39523e-06  -6.8505e-07 3.92334e-06 -4.16938e-06  -6.01886e-07 6.32791e-06 -2.49593e-06  1.52532e-07 3.65569e-06 -3.18622e-06  -2.86234e-06 2.32483e-06 -6.25971e-06  4.67821e-06 -1.38919e-06 -4.43955e-06  7.84738e-07 1.00133e-07 -4.73745e-07  6.80568e-07 1.17795e-06 2.35446e-06  7.51728e-07 -3.54808e-07 3.53162e-07  -3.42466e-06 -2.1946e-08 -3.70831e-06  7.02642e-06 -1.34758e-06 -2.63679e-06  1.83464e-06 8.42587e-08 2.41414e-06  1.05024e-06 5.33438e-07 5.7591e-06  -5.44844e-07 3.93373e-07 2.30049e-06  -6.23908e-06 1.76706e-06 -3.00776e-06  4.02825e-06 -4.4577e-07 -3.16872e-06  1.18078e-07 3.68256e-07 4.26775e-07  8.40298e-07 -7.26584e-07 2.37777e-06  2.03452e-07 4.70198e-08 -3.44581e-07  -4.33392e-06 1.6495e-06 -4.5675e-06  2.36633e-06 -3.35633e-06 -6.19827e-06  9.34066e-08 -3.73824e-06 -3.66735e-06  2.00307e-06 -6.27349e-06 -2.81949e-06  1.99989e-06 -4.23686e-06 -4.43574e-06  -7.55957e-07 -1.10171e-06 -6.85958e-06  
            </DataArray>
            <DataArray type="Float64" Name="Traction" NumberOfComponents="3" format="ascii">
               4.23112e-06 3.56294e-06 -5.4248e-05  -1.27899e-05 2.53673e-05 -5.4248e-05  -1.75569e-05 1.15673e-05 -5.4248e-05  -1.58372e-05 1.00689e-05 -5.4248e-05  -2.22271e-05 3.55718e-05 -5.4248e-05  3.06529e-05 -1.3745e-05 -5.4248e-05  1.34345e-05 8.48885e-06 -5.4248e-05  1.4883e-06 7.02123e-06 -5.4248e-05  -3.58261e-06 7.2797e-06 -5.4248e-05  -6.62553e-06 2.29361e-05 -5.4248e-05  1.53827e-05 -1.9937e-05 -5.4248e-05  1.0057e-05 -1.94779e-06 -5.4248e-05  2.542e-06 9.16611e-07 -5.4248e-05  -1.06729e-06 4.03705e-06 -5.4248e-05  -2.80854e-06 1.7665e-05 -5.4248e-05  1.76506e-05 -2.01423e-05 -5.4248e-05  1.21553e-05 -6.42139e-06 -5.4248e-05  4.80838e-06 -4.65802e-06 -5.4248e-05  -3.80695e-06 -5.75934e-06 -5.4248e-05  -1.29357e-05 9.39735e-06 -5.4248e-05  4.28455e-05 -2.75202e-05 -5.4248e-05  2.74571e-05 -9.24088e-06 -5.4248e-05  1.78564e-05 -7.04636e-06 -5.4248e-05  9.88863e-06 -1.64688e-05 -5.4248e-05  -2.49168e-06 -5.25594e-06 -5.4248e-05  
            </DataArray>
         </PointData> 
      </Piece>
   </UnstructuredGrid> 
</VTKFile>
