<?xml version="1.0"?>
<VTKFile type="UnstructuredGrid" version="0.1" byte_order="LittleEndian">
   <UnstructuredGrid>
      <Piece NumberOfPoints="25" NumberOfCells="0" > 
         <Points> 
            <DataArray type="Float64" Name="Position" NumberOfComponents="3" format="ascii"> 
               0  0  20  
               0.75  0  20  
               1.5  0  20  
               2.25  0  20  
               3  0  20  
               0  0.75  20  
               0.75  0.75  20  
               1.5  0.75  20  
               2.25  0.75  20  
               3  0.75  20  
               0  1.5  20  
               0.75  1.5  20  
               1.5  1.5  20  
               2.25  1.5  20  
               3  1.5  20  
               0  2.25  20  
               0.75  2.25  20  
               1.5  2.25  20  
               2.25  2.25  20  
               3  2.25  20  
               0  3  20  
               0.75  3  20  
               1.5  3  20  
               2.25  3  20  
               3  3  20  
            </DataArray>
         </Points> 

         <Cells>
            <DataArray type="Int32" Name="connectivity" NumberOfComponents="1" format="ascii">
               
            </DataArray> 
            <DataArray type="Int32" Name="offsets" NumberOfComponents="1" format="ascii">
               
            </DataArray>
            <DataArray type="UInt8"  Name="types" NumberOfComponents="1" format="ascii">
               
            </DataArray>
         </Cells>
         <PointData Scalars="Rank " Vectors="Displacement Velocity Traction ">
            <DataArray type="UInt32" Name="Rank" NumberOfComponents="1" format="ascii">
               0 0 0 0 0 0 0 0 0 0 0 0 0 0 0 0 0 0 0 0 0 0 0 0 0 
            </DataArray>
            <DataArray type="Float64" Name="Displacement" NumberOfComponents="3" format="ascii">
               0.000317184 0.000325852 -0.00145429  7.64989e-06 0.000554505 -0.00145106  -0.000192614 0.000654057 -0.00139387  -0.000177668 0.000472072 -0.00145541  -0.000365025 0.000609894 -0.00146545  0.000542228 1.50028e-05 -0.001445  0.000167458 0.000177492 -0.00132571  -6.83538e-05 0.000281038 -0.00122913  -0.000188521 0.000187518 -0.00137804  -0.000467626 0.000322293 -0.00142391  0.000642773 -0.00018326 -0.00138908  0.000271456 -6.05701e-05 -0.00122988  -9.54164e-06 -1.97844e-06 -0.00104728  -0.000270167 4.4442e-05 -0.00123486  -0.00063706 0.000178577 -0.0013892  0.000463085 -0.000164974 -0.00145291  0.000179437 -0.000179033 -0.00137986  3.7249e-05 -0.000261371 -0.00123549  -0.000173768 -0.000164991 -0.00133718  -0.00054309 -3.26744e-05 -0.00144731  0.000600752 -0.000352368 -0.00145726  0.000313208 -0.000456119 -0.00142072  0.000172121 -0.000626685 -0.00138495  -3.92793e-05 -0.000533571 -0.00144188  -0.000344815 -0.000336496 -0.00144689  
            </DataArray>
            <DataArray type="Float64" Name="Velocity" NumberOfComponents="3" format="ascii">
               0.00029778 0.000298279 -0.00141454  2.14966e-05 0.000500166 -0.0014289  -0.00016193 0.00058995 -0.00138965  -0.000161859 0.000433547 -0.00144351  -0.000331044 0.000553888 -0.00143646  0.000489693 2.04799e-05 -0.00142144  0.000154046 0.000161561 -0.00133541  -6.05022e-05 0.000253772 -0.00125955  -0.00017685 0.000176497 -0.00138969  -0.000426435 0.000295885 -0.00141642  0.000577314 -0.000158985 -0.00138063  0.000244319 -5.8622e-05 -0.00125903  -1.04089e-05 -6.9652e-06 -0.00110413  -0.000250906 3.85508e-05 -0.00126611  -0.000581109 0.000155016 -0.00139072  0.000419647 -0.000147907 -0.00143533  0.000166984 -0.000169587 -0.00139022  3.40647e-05 -0.000242931 -0.00126616  -0.000163255 -0.000154165 -0.00134869  -0.000498735 -4.18966e-05 -0.00143314  0.000538637 -0.000312587 -0.0014168  0.000282588 -0.000413316 -0.00140899  0.000150095 -0.000568814 -0.00138236  -4.27207e-05 -0.000485432 -0.00142451  -0.00031975 -0.000316803 -0.0014158  
            </DataArray>
            <DataArray type="Float64" Name="Traction" NumberOfComponents="3" format="ascii">
               -0.00208698 -0.00209114 -0.016366  -0.000607619 -0.00385474 -0.016366  0.00115754 -0.0044654 -0.016366  0.000887062 -0.00289201 -0.016366  0.00171602 -0.00341448 -0.016366  -0.00382145 -0.000567161 -0.016366  -0.00160225 -0.001589 -0.016366  0.00129261 -0.00248061 -0.016366  0.00147246 -0.0016322 -0.016366  0.00252362 -0.00174828 -0.016366  -0.00444726 0.00122721 -0.016366  -0.00250223 0.00135366 -0.016366  0.000972749 0.00103441 -0.016366  0.00228136 0.000256964 -0.016366  0.00416387 -0.000276224 -0.016366  -0.0028881 0.000895625 -0.016366  -0.00166185 0.00149532 -0.016366  0.000193403 0.00230782 -0.016366  0.00144317 0.00147028 -0.016366  0.00356541 0.000633068 -0.016366  -0.00340596 0.00168459 -0.016366  -0.00177154 0.00250587 -0.016366  -0.000349536 0.00415502 -0.016366  0.000590486 0.00356032 -0.016366  0.00204418 0.00204523 -0.016366  
            </DataArray>
         </PointData> 
      </Piece>
   </UnstructuredGrid> 
</VTKFile>
