<?xml version="1.0"?>
<VTKFile type="UnstructuredGrid" version="0.1" byte_order="LittleEndian">
   <UnstructuredGrid>
      <Piece NumberOfPoints="25" NumberOfCells="0" > 
         <Points> 
            <DataArray type="Float64" Name="Position" NumberOfComponents="3" format="ascii"> 
               0  0  15  
               0.75  0  15  
               1.5  0  15  
               2.25  0  15  
               3  0  15  
               0  0.75  15  
               0.75  0.75  15  
               1.5  0.75  15  
               2.25  0.75  15  
               3  0.75  15  
               0  1.5  15  
               0.75  1.5  15  
               1.5  1.5  15  
               2.25  1.5  15  
               3  1.5  15  
               0  2.25  15  
               0.75  2.25  15  
               1.5  2.25  15  
               2.25  2.25  15  
               3  2.25  15  
               0  3  15  
               0.75  3  15  
               1.5  3  15  
               2.25  3  15  
               3  3  15  
            </DataArray>
         </Points> 

         <Cells>
            <DataArray type="Int32" Name="connectivity" NumberOfComponents="1" format="ascii">
               
            </DataArray> 
            <DataArray type="Int32" Name="offsets" NumberOfComponents="1" format="ascii">
               
            </DataArray>
            <DataArray type="UInt8"  Name="types" NumberOfComponents="1" format="ascii">
               
            </DataArray>
         </Cells>
         <PointData Scalars="Rank " Vectors="Displacement Velocity Traction ">
            <DataArray type="UInt32" Name="Rank" NumberOfComponents="1" format="ascii">
               0 0 0 0 0 0 0 0 0 0 0 0 0 0 0 0 0 0 0 0 0 0 0 0 0 
            </DataArray>
            <DataArray type="Float64" Name="Displacement" NumberOfComponents="3" format="ascii">
               3.78506e-07 4.67925e-07 -5.87247e-07  3.59953e-07 -4.72169e-08 -5.32234e-07  3.04622e-07 2.04409e-08 -4.80264e-07  2.43243e-07 1.54412e-08 -5.24185e-07  2.22383e-07 -7.63727e-08 -5.86703e-07  -3.88736e-08 4.19194e-07 -5.32291e-07  -2.93972e-08 -5.24354e-08 -4.07461e-07  -1.9904e-08 7.04519e-09 -3.06744e-07  8.99423e-10 1.71587e-08 -4.10296e-07  9.60464e-09 -1.12312e-07 -5.23231e-07  1.14974e-07 2.95776e-07 -4.8028e-07  8.16512e-08 -1.71103e-08 -3.06737e-07  -4.15758e-08 -3.75877e-08 -1.55943e-07  -1.57707e-07 4.91852e-08 -3.08084e-07  -2.14952e-07 -1.76344e-07 -4.81585e-07  4.14838e-08 2.09016e-07 -5.24078e-07  3.69567e-08 2.34766e-08 -4.10345e-07  5.39825e-08 -1.20132e-07 -3.08097e-07  7.1182e-08 5.32525e-08 -4.08609e-07  5.33194e-08 -1.86171e-07 -5.32253e-07  -1.94468e-07 1.71398e-07 -5.86549e-07  -2.35863e-07 4.00704e-08 -5.23332e-07  -3.83351e-07 -1.35161e-07 -4.81771e-07  -4.76621e-07 2.41785e-08 -5.32412e-07  -4.5793e-07 -1.94682e-07 -5.87313e-07  
            </DataArray>
            <DataArray type="Float64" Name="Velocity" NumberOfComponents="3" format="ascii">
               1.00614e-06 1.1737e-06 -1.23844e-06  9.71419e-07 -8.89289e-08 -1.13767e-06  8.42615e-07 -5.28195e-08 -1.03084e-06  7.00377e-07 2.93167e-08 -1.1098e-06  6.54591e-07 -1.69311e-07 -1.24305e-06  -7.35483e-08 1.05669e-06 -1.13793e-06  -4.05966e-08 -9.73499e-08 -9.02007e-07  -4.0015e-08 -5.35992e-08 -7.35527e-07  -3.0734e-08 4.47481e-08 -9.15938e-07  -2.14015e-08 -2.48191e-07 -1.10373e-06  2.43824e-07 7.77978e-07 -1.03081e-06  1.8692e-07 -3.26045e-08 -7.35497e-07  -9.49947e-08 -1.18718e-07 -4.92686e-07  -3.6754e-07 1.20359e-07 -7.39946e-07  -4.99717e-07 -3.68774e-07 -1.03381e-06  1.29068e-07 5.71582e-07 -1.10928e-06  1.19936e-07 4.79481e-08 -9.16132e-07  1.29141e-07 -2.69527e-07 -7.39879e-07  1.52119e-07 1.34469e-07 -9.06198e-07  1.12714e-07 -3.48305e-07 -1.13709e-06  -5.63636e-07 4.81651e-07 -1.2424e-06  -6.61854e-07 9.33165e-08 -1.10418e-06  -9.93834e-07 -2.81609e-07 -1.03452e-06  -1.18868e-06 7.55736e-08 -1.13776e-06  -1.13575e-06 -3.46034e-07 -1.23993e-06  
            </DataArray>
            <DataArray type="Float64" Name="Traction" NumberOfComponents="3" format="ascii">
               0 0 0  0 0 0  0 0 0  0 0 0  0 0 0  0 0 0  0 0 0  0 0 0  0 0 0  0 0 0  0 0 0  0 0 0  0 0 0  0 0 0  0 0 0  0 0 0  0 0 0  0 0 0  0 0 0  0 0 0  0 0 0  0 0 0  0 0 0  0 0 0  0 0 0  
            </DataArray>
         </PointData> 
      </Piece>
   </UnstructuredGrid> 
</VTKFile>
