<?xml version="1.0"?>
<VTKFile type="UnstructuredGrid" version="0.1" byte_order="LittleEndian">
   <UnstructuredGrid>
      <Piece NumberOfPoints="25" NumberOfCells="0" > 
         <Points> 
            <DataArray type="Float64" Name="Position" NumberOfComponents="3" format="ascii"> 
               0  0  20  
               0.75  0  20  
               1.5  0  20  
               2.25  0  20  
               3  0  20  
               0  0.75  20  
               0.75  0.75  20  
               1.5  0.75  20  
               2.25  0.75  20  
               3  0.75  20  
               0  1.5  20  
               0.75  1.5  20  
               1.5  1.5  20  
               2.25  1.5  20  
               3  1.5  20  
               0  2.25  20  
               0.75  2.25  20  
               1.5  2.25  20  
               2.25  2.25  20  
               3  2.25  20  
               0  3  20  
               0.75  3  20  
               1.5  3  20  
               2.25  3  20  
               3  3  20  
            </DataArray>
         </Points> 

         <Cells>
            <DataArray type="Int32" Name="connectivity" NumberOfComponents="1" format="ascii">
               
            </DataArray> 
            <DataArray type="Int32" Name="offsets" NumberOfComponents="1" format="ascii">
               
            </DataArray>
            <DataArray type="UInt8"  Name="types" NumberOfComponents="1" format="ascii">
               
            </DataArray>
         </Cells>
         <PointData Scalars="Rank " Vectors="Displacement Velocity Traction ">
            <DataArray type="UInt32" Name="Rank" NumberOfComponents="1" format="ascii">
               0 0 0 0 0 0 0 0 0 0 0 0 0 0 0 0 0 0 0 0 0 0 0 0 0 
            </DataArray>
            <DataArray type="Float64" Name="Displacement" NumberOfComponents="3" format="ascii">
               -2.15906e-06 -2.16881e-06 1.96566e-06  7.30905e-07 -3.67501e-06 8.55459e-07  1.79617e-06 -3.67288e-06 1.5004e-07  1.68917e-06 -2.66552e-06 2.89548e-07  3.40683e-06 -3.54194e-06 1.83838e-06  -3.91291e-06 6.83794e-07 9.71828e-07  -1.11373e-06 -1.01593e-06 -9.53413e-07  -1.61584e-08 -1.53048e-06 -1.69745e-06  7.49168e-07 -8.84269e-07 -1.06694e-06  2.71642e-06 -1.64822e-06 2.27384e-07  -3.88406e-06 1.8546e-06 3.03919e-07  -1.65363e-06 3.91621e-08 -1.69035e-06  -3.07011e-07 -1.99938e-07 -2.82146e-06  1.01002e-06 -1.28995e-07 -1.71844e-06  3.25764e-06 -1.55986e-06 2.55285e-08  -2.89311e-06 1.73445e-06 4.38052e-07  -1.06284e-06 8.37354e-07 -1.08002e-06  -2.92562e-07 1.23654e-06 -1.74034e-06  6.41529e-07 9.61896e-07 -9.38254e-07  3.12549e-06 -5.55311e-07 6.31386e-07  -3.91443e-06 3.45098e-06 2.04691e-06  -2.01966e-06 2.87219e-06 2.68073e-07  -1.83698e-06 3.55468e-06 1.36474e-07  -8.67749e-07 3.49921e-06 8.30638e-07  1.64997e-06 2.01958e-06 1.58494e-06  
            </DataArray>
            <DataArray type="Float64" Name="Velocity" NumberOfComponents="3" format="ascii">
               -1.98474e-06 -2.31475e-06 3.69171e-06  -1.06877e-07 -2.41252e-06 4.2673e-06  1.60837e-06 -1.2589e-06 4.68078e-06  1.84571e-06 -1.61236e-06 4.54694e-06  2.07762e-06 -3.64156e-06 3.58468e-06  -2.16215e-06 -4.43084e-07 4.2377e-06  -1.20059e-06 -1.40777e-06 4.83506e-06  5.8962e-07 -1.47752e-06 5.73963e-06  1.58198e-06 -1.64925e-06 5.52898e-06  1.40431e-06 -2.50128e-06 3.92347e-06  -1.1358e-06 1.32436e-06 4.7671e-06  -1.37042e-06 3.87678e-07 5.78912e-06  2.46154e-07 1.80536e-07 6.33132e-06  1.33115e-06 -1.61871e-07 5.75687e-06  7.64564e-07 -9.93008e-07 4.24275e-06  -1.68294e-06 1.73159e-06 4.66129e-06  -1.66634e-06 1.5394e-06 5.5334e-06  -2.10558e-07 1.48788e-06 5.76575e-06  1.10072e-06 1.35517e-06 4.97238e-06  1.61051e-06 5.64802e-07 3.84625e-06  -3.90817e-06 2.07536e-06 3.84977e-06  -2.781e-06 1.51532e-06 4.03446e-06  -1.15842e-06 1.09508e-06 4.47455e-06  4.85194e-07 2.02214e-06 4.10653e-06  1.92153e-06 2.04282e-06 3.05056e-06  
            </DataArray>
            <DataArray type="Float64" Name="Traction" NumberOfComponents="3" format="ascii">
               1.02384e-05 9.82586e-06 3.51949e-05  -7.80352e-06 3.21501e-05 3.51949e-05  -1.29442e-05 2.97586e-05 3.51949e-05  -1.65111e-05 2.24447e-05 3.51949e-05  -3.261e-05 3.51569e-05 3.51949e-05  3.60749e-05 -7.52434e-06 3.51949e-05  1.39214e-05 1.12824e-05 3.51949e-05  -7.72631e-07 1.40728e-05 3.51949e-05  -8.86012e-06 9.48428e-06 3.51949e-05  -2.37333e-05 1.80657e-05 3.51949e-05  3.13351e-05 -1.35682e-05 3.51949e-05  1.46709e-05 -2.2671e-06 3.51949e-05  -2.32964e-06 -1.93996e-06 3.51949e-05  -1.10235e-05 3.14103e-07 3.51949e-05  -2.65244e-05 1.241e-05 3.51949e-05  2.55013e-05 -1.82656e-05 3.51949e-05  1.08879e-05 -9.8712e-06 3.51949e-05  -9.75992e-07 -1.18801e-05 3.51949e-05  -1.05608e-05 -1.00485e-05 3.51949e-05  -2.8279e-05 4.61754e-06 3.51949e-05  3.82237e-05 -3.48016e-05 3.51949e-05  1.9479e-05 -2.45474e-05 3.51949e-05  1.09635e-05 -2.77716e-05 3.51949e-05  3.95832e-06 -2.85305e-05 3.51949e-05  -1.19095e-05 -1.28261e-05 3.51949e-05  
            </DataArray>
         </PointData> 
      </Piece>
   </UnstructuredGrid> 
</VTKFile>
