<?xml version="1.0"?>
<VTKFile type="UnstructuredGrid" version="0.1" byte_order="LittleEndian">
   <UnstructuredGrid>
      <Piece NumberOfPoints="25" NumberOfCells="0" > 
         <Points> 
            <DataArray type="Float64" Name="Position" NumberOfComponents="3" format="ascii"> 
               0  0  15  
               0.75  0  15  
               1.5  0  15  
               2.25  0  15  
               3  0  15  
               0  0.75  15  
               0.75  0.75  15  
               1.5  0.75  15  
               2.25  0.75  15  
               3  0.75  15  
               0  1.5  15  
               0.75  1.5  15  
               1.5  1.5  15  
               2.25  1.5  15  
               3  1.5  15  
               0  2.25  15  
               0.75  2.25  15  
               1.5  2.25  15  
               2.25  2.25  15  
               3  2.25  15  
               0  3  15  
               0.75  3  15  
               1.5  3  15  
               2.25  3  15  
               3  3  15  
            </DataArray>
         </Points> 

         <Cells>
            <DataArray type="Int32" Name="connectivity" NumberOfComponents="1" format="ascii">
               
            </DataArray> 
            <DataArray type="Int32" Name="offsets" NumberOfComponents="1" format="ascii">
               
            </DataArray>
            <DataArray type="UInt8"  Name="types" NumberOfComponents="1" format="ascii">
               
            </DataArray>
         </Cells>
         <PointData Scalars="Rank " Vectors="Displacement Velocity Traction ">
            <DataArray type="UInt32" Name="Rank" NumberOfComponents="1" format="ascii">
               0 0 0 0 0 0 0 0 0 0 0 0 0 0 0 0 0 0 0 0 0 0 0 0 0 
            </DataArray>
            <DataArray type="Float64" Name="Displacement" NumberOfComponents="3" format="ascii">
               0.000207255 0.000119692 -6.94582e-06  0.000202948 2.90458e-05 -5.50642e-06  0.000182103 2.29676e-05 -4.3135e-06  0.000158089 1.20329e-05 -5.02518e-06  0.000150866 -3.76501e-05 -6.73974e-06  7.57036e-05 0.00011743 -5.71543e-06  7.79293e-05 3.11757e-05 -3.11367e-06  7.79725e-05 2.27612e-05 -6.52676e-07  8.04977e-05 7.5152e-06 -2.4341e-06  8.57454e-05 -4.51259e-05 -5.54914e-06  5.44369e-05 0.000101932 -4.36287e-06  5.63737e-05 2.50856e-05 -5.91321e-07  4.33916e-05 1.93123e-06 2.1916e-06  3.43963e-05 -9.63575e-06 -7.4863e-07  3.8776e-05 -6.48099e-05 -4.93299e-06  2.7486e-05 8.18852e-05 -4.90453e-06  2.96908e-05 1.58878e-05 -2.36267e-06  2.86818e-05 -1.67806e-05 -6.84677e-07  2.98665e-05 -2.2729e-05 -2.98185e-06  3.15267e-05 -7.46305e-05 -6.09785e-06  -1.43423e-05 7.54005e-05 -6.58273e-06  -1.73755e-05 1.19264e-05 -5.51137e-06  -2.5308e-05 -2.34776e-05 -4.67477e-06  -2.36459e-05 -2.88955e-05 -5.81887e-06  -1.84047e-05 -7.24395e-05 -7.67845e-06  
            </DataArray>
            <DataArray type="Float64" Name="Velocity" NumberOfComponents="3" format="ascii">
               0.000149268 0.000118507 -2.79101e-05  0.000143696 3.03259e-05 -2.38871e-05  0.000122308 1.23415e-05 -2.05842e-05  9.7576e-05 -3.41552e-06 -2.23408e-05  8.8646e-05 -5.92489e-05 -2.70654e-05  4.7106e-05 0.000113885 -2.44573e-05  4.82099e-05 3.08822e-05 -1.6202e-05  4.11563e-05 1.62173e-05 -1.09807e-05  3.60866e-05 -4.87784e-06 -1.59893e-05  3.92302e-05 -6.69565e-05 -2.21337e-05  1.79949e-05 9.39332e-05 -2.11842e-05  2.41606e-05 1.92613e-05 -1.09763e-05  1.4912e-05 9.4386e-08 -3.44225e-06  8.70362e-06 -2.21069e-05 -1.11649e-05  1.68956e-05 -8.8477e-05 -2.07546e-05  -2.32529e-06 7.04253e-05 -2.26772e-05  5.65981e-08 6.92761e-06 -1.58315e-05  -7.00848e-06 -1.4544e-05 -1.10393e-05  -1.33096e-05 -3.86149e-05 -1.62195e-05  -1.1296e-05 -0.000106383 -2.3795e-05  -4.04576e-05 6.22535e-05 -2.77801e-05  -4.5915e-05 4.89641e-06 -2.23482e-05  -5.98729e-05 -1.41586e-05 -2.09064e-05  -6.93677e-05 -4.25318e-05 -2.4103e-05  -7.03907e-05 -0.000110512 -2.74287e-05  
            </DataArray>
            <DataArray type="Float64" Name="Traction" NumberOfComponents="3" format="ascii">
               0.0027135 0.00250206 -0.00284938  -0.000429246 0.00270678 -0.00284938  -0.000250898 0.00288749 -0.00284938  -0.000121509 0.00315377 -0.00284938  -0.00344355 0.00295999 -0.00284938  0.00339065 -0.000486858 -0.00284938  0.000289348 0.000539897 -0.00284938  9.63955e-05 0.00113741 -0.00284938  0.000133519 0.0005342 -0.00284938  -0.00264678 0.000204859 -0.00284938  0.00336018 -0.000422783 -0.00284938  0.000444184 9.89274e-05 -0.00284938  1.14886e-05 3.40693e-05 -0.00284938  -0.000303546 -0.000157981 -0.00284938  -0.0031745 0.000107867 -0.00284938  0.00333126 -0.000235962 -0.00284938  1.90769e-05 -0.000267001 -0.00284938  -0.00017663 -0.00101786 -0.00284938  -0.000349248 -0.000973833 -0.00284938  -0.00138825 -0.000875707 -0.00284938  0.0032992 -0.00389053 -0.00284938  -9.06659e-05 -0.00281575 -0.00284938  0.000252772 -0.00313776 -0.00284938  -0.00040878 -0.00195219 -0.00284938  0.000454522 9.49142e-05 -0.00284938  
            </DataArray>
         </PointData> 
      </Piece>
   </UnstructuredGrid> 
</VTKFile>
