<?xml version="1.0"?>
<VTKFile type="UnstructuredGrid" version="0.1" byte_order="LittleEndian">
   <UnstructuredGrid>
      <Piece NumberOfPoints="25" NumberOfCells="0" > 
         <Points> 
            <DataArray type="Float64" Name="Position" NumberOfComponents="3" format="ascii"> 
               0  0  15  
               0.75  0  15  
               1.5  0  15  
               2.25  0  15  
               3  0  15  
               0  0.75  15  
               0.75  0.75  15  
               1.5  0.75  15  
               2.25  0.75  15  
               3  0.75  15  
               0  1.5  15  
               0.75  1.5  15  
               1.5  1.5  15  
               2.25  1.5  15  
               3  1.5  15  
               0  2.25  15  
               0.75  2.25  15  
               1.5  2.25  15  
               2.25  2.25  15  
               3  2.25  15  
               0  3  15  
               0.75  3  15  
               1.5  3  15  
               2.25  3  15  
               3  3  15  
            </DataArray>
         </Points> 

         <Cells>
            <DataArray type="Int32" Name="connectivity" NumberOfComponents="1" format="ascii">
               
            </DataArray> 
            <DataArray type="Int32" Name="offsets" NumberOfComponents="1" format="ascii">
               
            </DataArray>
            <DataArray type="UInt8"  Name="types" NumberOfComponents="1" format="ascii">
               
            </DataArray>
         </Cells>
         <PointData Scalars="Rank " Vectors="Displacement Velocity Traction ">
            <DataArray type="UInt32" Name="Rank" NumberOfComponents="1" format="ascii">
               0 0 0 0 0 0 0 0 0 0 0 0 0 0 0 0 0 0 0 0 0 0 0 0 0 
            </DataArray>
            <DataArray type="Float64" Name="Displacement" NumberOfComponents="3" format="ascii">
               0.000688968 0.000615053 -0.000318611  0.000656355 0.000104155 -0.000305674  0.000529767 -2.46607e-05 -0.000285621  0.000381877 -6.12648e-05 -0.000301886  0.000327565 -0.000368489 -0.000313824  0.000111371 0.000583915 -0.000306626  0.000114073 0.000105158 -0.000262963  4.71151e-05 1.22925e-05 -0.000231835  -1.40582e-05 -6.19616e-05 -0.00027203  -3.05854e-06 -0.000420709 -0.000294237  -4.04832e-05 0.000465991 -0.000287577  -1.10948e-06 2.63373e-05 -0.000232276  -6.21809e-05 -6.30482e-05 -0.000179923  -0.000113616 -0.000157015 -0.000233152  -6.87582e-05 -0.000556668 -0.000282834  -9.60783e-05 0.000325744 -0.000304069  -8.79357e-05 -5.23337e-05 -0.000272203  -0.000157628 -0.00013199 -0.000233158  -0.000224038 -0.000250279 -0.00026476  -0.00022042 -0.000664705 -0.000301877  -0.000377566 0.000273444 -0.000318193  -0.000422025 -5.45471e-05 -0.000295612  -0.000535933 -0.000106304 -0.000284149  -0.000619575 -0.000263831 -0.000303323  -0.00063526 -0.000690367 -0.000312558  
            </DataArray>
            <DataArray type="Float64" Name="Velocity" NumberOfComponents="3" format="ascii">
               0.000345385 0.000404341 -0.000382368  0.000319147 3.60925e-05 -0.000379317  0.000225996 -8.51499e-05 -0.000361849  0.000117857 -8.68547e-05 -0.000379221  7.63925e-05 -0.000303922 -0.000382449  -3.5811e-05 0.000377252 -0.000377798  -3.75853e-05 3.37242e-05 -0.000343091  -0.000107308 -4.76491e-05 -0.000315621  -0.000175185 -8.17278e-05 -0.000356866  -0.000172282 -0.000347141 -0.000369583  -0.000147934 0.000285763 -0.000361285  -0.000112443 -3.63564e-05 -0.000316128  -0.000154866 -8.82069e-05 -0.000265387  -0.000195894 -0.000149352 -0.000316823  -0.000160458 -0.000454443 -0.000358588  -0.000150153 0.00017906 -0.000379803  -0.000146803 -0.000101975 -0.000357763  -0.000217375 -0.00012618 -0.000317212  -0.000288809 -0.000219475 -0.000345706  -0.000290953 -0.000543716 -0.000375866  -0.000378623 0.000137312 -0.000382918  -0.000421035 -9.71379e-05 -0.000369715  -0.000527912 -8.84165e-05 -0.000358539  -0.000616578 -0.000222092 -0.000375282  -0.000641186 -0.000569806 -0.00037768  
            </DataArray>
            <DataArray type="Float64" Name="Traction" NumberOfComponents="3" format="ascii">
               0 0 0  0 0 0  0 0 0  0 0 0  0 0 0  0 0 0  0 0 0  0 0 0  0 0 0  0 0 0  0 0 0  0 0 0  0 0 0  0 0 0  0 0 0  0 0 0  0 0 0  0 0 0  0 0 0  0 0 0  0 0 0  0 0 0  0 0 0  0 0 0  0 0 0  
            </DataArray>
         </PointData> 
      </Piece>
   </UnstructuredGrid> 
</VTKFile>
