<?xml version="1.0"?>
<VTKFile type="UnstructuredGrid" version="0.1" byte_order="LittleEndian">
   <UnstructuredGrid>
      <Piece NumberOfPoints="25" NumberOfCells="0" > 
         <Points> 
            <DataArray type="Float64" Name="Position" NumberOfComponents="3" format="ascii"> 
               0  0  15  
               0.75  0  15  
               1.5  0  15  
               2.25  0  15  
               3  0  15  
               0  0.75  15  
               0.75  0.75  15  
               1.5  0.75  15  
               2.25  0.75  15  
               3  0.75  15  
               0  1.5  15  
               0.75  1.5  15  
               1.5  1.5  15  
               2.25  1.5  15  
               3  1.5  15  
               0  2.25  15  
               0.75  2.25  15  
               1.5  2.25  15  
               2.25  2.25  15  
               3  2.25  15  
               0  3  15  
               0.75  3  15  
               1.5  3  15  
               2.25  3  15  
               3  3  15  
            </DataArray>
         </Points> 

         <Cells>
            <DataArray type="Int32" Name="connectivity" NumberOfComponents="1" format="ascii">
               
            </DataArray> 
            <DataArray type="Int32" Name="offsets" NumberOfComponents="1" format="ascii">
               
            </DataArray>
            <DataArray type="UInt8"  Name="types" NumberOfComponents="1" format="ascii">
               
            </DataArray>
         </Cells>
         <PointData Scalars="Rank " Vectors="Displacement Velocity Traction ">
            <DataArray type="UInt32" Name="Rank" NumberOfComponents="1" format="ascii">
               0 0 0 0 0 0 0 0 0 0 0 0 0 0 0 0 0 0 0 0 0 0 0 0 0 
            </DataArray>
            <DataArray type="Float64" Name="Displacement" NumberOfComponents="3" format="ascii">
               0.000421538 0.00031788 -9.08972e-05  0.00040695 6.89938e-05 -8.31811e-05  0.00034657 2.17062e-05 -7.53178e-05  0.00027616 -6.74584e-06 -8.06137e-05  0.000251505 -0.000155927 -8.83633e-05  0.000117232 0.000305532 -8.42456e-05  0.000120428 7.12001e-05 -6.59049e-05  9.99196e-05 3.31316e-05 -5.3359e-05  8.3804e-05 -1.09768e-05 -6.71217e-05  9.23163e-05 -0.000178859 -7.90673e-05  4.52123e-05 0.000252225 -7.66057e-05  6.01271e-05 4.02168e-05 -5.34308e-05  2.94399e-05 -1.13817e-05 -3.42611e-05  6.27481e-06 -5.79777e-05 -5.38786e-05  2.58781e-05 -0.000240265 -7.50829e-05  -2.33245e-06 0.000187725 -8.15615e-05  2.8669e-06 6.60533e-06 -6.69035e-05  -1.93028e-05 -5.17558e-05 -5.37128e-05  -3.82912e-05 -0.000101329 -6.62008e-05  -3.44916e-05 -0.000285678 -8.23926e-05  -0.000126132 0.000164786 -9.04418e-05  -0.000142341 1.75013e-06 -7.97186e-05  -0.000184257 -5.05051e-05 -7.56155e-05  -0.000208852 -0.000112006 -8.31485e-05  -0.000209022 -0.00029322 -8.91824e-05  
            </DataArray>
            <DataArray type="Float64" Name="Velocity" NumberOfComponents="3" format="ascii">
               0.000244044 0.000251467 -0.000144978  0.00022999 3.97291e-05 -0.000138114  0.000176539 -2.15216e-05 -0.000128614  0.000113596 -3.57001e-05 -0.000136117  8.95844e-05 -0.000166953 -0.000141654  2.01126e-05 0.00023682 -0.000138858  2.05205e-05 3.92125e-05 -0.000117764  -1.30525e-05 -2.63304e-06 -0.000103593  -4.51532e-05 -3.34348e-05 -0.000122266  -4.24323e-05 -0.000189108 -0.00013205  -4.57399e-05 0.000185092 -0.00013003  -2.69419e-05 2.80654e-06 -0.000103865  -5.14256e-05 -3.02082e-05 -7.95826e-05  -7.28714e-05 -7.25354e-05 -0.00010421  -5.24034e-05 -0.000247373 -0.000126663  -6.04795e-05 0.000124266 -0.000137668  -5.74468e-05 -3.18622e-05 -0.000122297  -9.21435e-05 -5.55279e-05 -0.000104216  -0.000126049 -0.000113046 -0.000118662  -0.000124729 -0.000296992 -0.000135527  -0.000181159 0.000101047 -0.000144835  -0.000201699 -3.09475e-05 -0.000133044  -0.000254624 -3.92331e-05 -0.000127851  -0.000297172 -0.000116865 -0.000136914  -0.00030739 -0.00031118 -0.000140937  
            </DataArray>
            <DataArray type="Float64" Name="Traction" NumberOfComponents="3" format="ascii">
               0 0 0  0 0 0  0 0 0  0 0 0  0 0 0  0 0 0  0 0 0  0 0 0  0 0 0  0 0 0  0 0 0  0 0 0  0 0 0  0 0 0  0 0 0  0 0 0  0 0 0  0 0 0  0 0 0  0 0 0  0 0 0  0 0 0  0 0 0  0 0 0  0 0 0  
            </DataArray>
         </PointData> 
      </Piece>
   </UnstructuredGrid> 
</VTKFile>
