<?xml version="1.0"?>
<VTKFile type="UnstructuredGrid" version="0.1" byte_order="LittleEndian">
   <UnstructuredGrid>
      <Piece NumberOfPoints="25" NumberOfCells="0" > 
         <Points> 
            <DataArray type="Float64" Name="Position" NumberOfComponents="3" format="ascii"> 
               0  0  15  
               0.75  0  15  
               1.5  0  15  
               2.25  0  15  
               3  0  15  
               0  0.75  15  
               0.75  0.75  15  
               1.5  0.75  15  
               2.25  0.75  15  
               3  0.75  15  
               0  1.5  15  
               0.75  1.5  15  
               1.5  1.5  15  
               2.25  1.5  15  
               3  1.5  15  
               0  2.25  15  
               0.75  2.25  15  
               1.5  2.25  15  
               2.25  2.25  15  
               3  2.25  15  
               0  3  15  
               0.75  3  15  
               1.5  3  15  
               2.25  3  15  
               3  3  15  
            </DataArray>
         </Points> 

         <Cells>
            <DataArray type="Int32" Name="connectivity" NumberOfComponents="1" format="ascii">
               
            </DataArray> 
            <DataArray type="Int32" Name="offsets" NumberOfComponents="1" format="ascii">
               
            </DataArray>
            <DataArray type="UInt8"  Name="types" NumberOfComponents="1" format="ascii">
               
            </DataArray>
         </Cells>
         <PointData Scalars="Rank " Vectors="Displacement Velocity Traction ">
            <DataArray type="UInt32" Name="Rank" NumberOfComponents="1" format="ascii">
               0 0 0 0 0 0 0 0 0 0 0 0 0 0 0 0 0 0 0 0 0 0 0 0 0 
            </DataArray>
            <DataArray type="Float64" Name="Displacement" NumberOfComponents="3" format="ascii">
               1.351e-05 6.24946e-06 -4.36143e-06  1.34589e-05 -4.02404e-07 -4.61276e-06  1.19504e-05 -1.45284e-06 -4.64448e-06  1.02343e-05 1.03851e-06 -4.71258e-06  9.8574e-06 1.25942e-06 -4.34169e-06  1.78429e-06 5.80956e-06 -4.60112e-06  1.99521e-06 -2.10952e-07 -4.66617e-06  1.75285e-06 -9.89848e-07 -4.7662e-06  1.18372e-06 1.20573e-06 -4.95395e-06  1.12514e-06 5.8077e-07 -4.48782e-06  3.16517e-06 5.14084e-06 -4.62877e-06  2.55559e-06 1.46314e-07 -4.76973e-06  3.92214e-07 -1.46761e-06 -4.68661e-06  -1.97953e-06 1.44853e-06 -4.80057e-06  -3.04317e-06 -3.75121e-07 -4.57593e-06  2.90233e-06 4.41864e-06 -4.68709e-06  2.65733e-06 3.95995e-07 -4.95514e-06  2.33673e-06 -2.36719e-06 -4.79528e-06  2.42399e-06 1.62436e-06 -4.72289e-06  2.09663e-06 5.05353e-07 -4.57767e-06  -4.06469e-06 4.00574e-06 -4.33251e-06  -4.46072e-06 5.26596e-07 -4.50937e-06  -5.71816e-06 -2.82241e-06 -4.59616e-06  -5.24538e-06 1.05653e-06 -4.59413e-06  -4.1277e-06 1.35541e-06 -4.30896e-06  
            </DataArray>
            <DataArray type="Float64" Name="Velocity" NumberOfComponents="3" format="ascii">
               1.59122e-05 3.65694e-06 2.54953e-08  1.60716e-05 -4.77555e-07 -6.48642e-07  1.4825e-05 -2.72026e-07 -1.14906e-06  1.31727e-05 2.09147e-06 -9.81895e-07  1.28747e-05 2.43124e-06 3.34246e-08  3.98087e-06 3.74347e-06 -6.13116e-07  4.11023e-06 -1.61059e-07 -1.67255e-06  4.15986e-06 -9.91189e-08 -2.3624e-06  3.95439e-06 1.93513e-06 -1.93474e-06  4.10853e-06 1.77561e-06 -7.86816e-07  4.76095e-06 4.01888e-06 -1.12089e-06  3.92085e-06 3.0255e-07 -2.37106e-06  2.00976e-06 -1.04363e-06 -3.12273e-06  1.62815e-07 1.52026e-06 -2.38108e-06  -5.32493e-07 7.08602e-07 -1.06226e-06  4.19072e-06 3.86631e-06 -9.48948e-07  3.89936e-06 3.92015e-07 -1.93565e-06  3.77918e-06 -2.16903e-06 -2.38255e-06  4.21226e-06 1.4412e-06 -1.71042e-06  4.0526e-06 1.60565e-06 -6.19849e-07  -1.29554e-06 3.74762e-06 4.1742e-08  -1.33994e-06 2.33587e-07 -8.10483e-07  -1.52261e-06 -3.12038e-06 -1.08348e-06  1.70832e-08 7.8533e-07 -6.23159e-07  1.34564e-06 2.74657e-06 7.46324e-08  
            </DataArray>
            <DataArray type="Float64" Name="Traction" NumberOfComponents="3" format="ascii">
               0.000242525 0.000251994 0.000131885  -0.000107198 0.000139962 0.000131885  -2.57366e-05 4.4108e-05 0.000131885  4.51599e-05 0.000168416 0.000131885  -0.000294063 0.000313636 0.000131885  0.000303966 -8.52631e-05 0.000131885  3.75975e-05 -7.70343e-06 0.000131885  1.39863e-05 5.69321e-05 0.000131885  2.58742e-05 2.21156e-05 0.000131885  -0.000344542 1.96777e-05 0.000131885  0.000317912 -1.05106e-05 0.000131885  8.56514e-05 7.07656e-06 0.000131885  2.11845e-05 9.05476e-06 0.000131885  2.02994e-05 9.90766e-06 0.000131885  -0.000424566 -2.8506e-06 0.000131885  0.000338184 5.13632e-05 0.000131885  3.5469e-05 1.8886e-05 0.000131885  1.82823e-05 -2.47445e-05 0.000131885  3.61881e-05 1.2308e-06 0.000131885  -0.000101124 -4.52619e-05 0.000131885  0.000365119 -0.00031586 0.000131885  1.2424e-05 -0.00027101 0.000131885  3.54968e-05 -0.000254642 0.000131885  3.4662e-05 -1.95807e-05 0.000131885  0.000219118 0.000163622 0.000131885  
            </DataArray>
         </PointData> 
      </Piece>
   </UnstructuredGrid> 
</VTKFile>
