<?xml version="1.0"?>
<VTKFile type="UnstructuredGrid" version="0.1" byte_order="LittleEndian">
   <UnstructuredGrid>
      <Piece NumberOfPoints="25" NumberOfCells="0" > 
         <Points> 
            <DataArray type="Float64" Name="Position" NumberOfComponents="3" format="ascii"> 
               0  0  15  
               0.75  0  15  
               1.5  0  15  
               2.25  0  15  
               3  0  15  
               0  0.75  15  
               0.75  0.75  15  
               1.5  0.75  15  
               2.25  0.75  15  
               3  0.75  15  
               0  1.5  15  
               0.75  1.5  15  
               1.5  1.5  15  
               2.25  1.5  15  
               3  1.5  15  
               0  2.25  15  
               0.75  2.25  15  
               1.5  2.25  15  
               2.25  2.25  15  
               3  2.25  15  
               0  3  15  
               0.75  3  15  
               1.5  3  15  
               2.25  3  15  
               3  3  15  
            </DataArray>
         </Points> 

         <Cells>
            <DataArray type="Int32" Name="connectivity" NumberOfComponents="1" format="ascii">
               
            </DataArray> 
            <DataArray type="Int32" Name="offsets" NumberOfComponents="1" format="ascii">
               
            </DataArray>
            <DataArray type="UInt8"  Name="types" NumberOfComponents="1" format="ascii">
               
            </DataArray>
         </Cells>
         <PointData Scalars="Rank " Vectors="Displacement Velocity Traction ">
            <DataArray type="UInt32" Name="Rank" NumberOfComponents="1" format="ascii">
               0 0 0 0 0 0 0 0 0 0 0 0 0 0 0 0 0 0 0 0 0 0 0 0 0 
            </DataArray>
            <DataArray type="Float64" Name="Displacement" NumberOfComponents="3" format="ascii">
               7.28371e-07 8.52543e-07 -9.69432e-07  6.98878e-07 -7.20985e-08 -8.87364e-07  5.98129e-07 -1.10792e-08 -8.03492e-07  4.87643e-07 2.35697e-08 -8.69713e-07  4.51639e-07 -1.24064e-07 -9.7113e-07  -5.86943e-08 7.65774e-07 -8.87529e-07  -3.74398e-08 -7.91451e-08 -6.9449e-07  -3.08074e-08 -1.97234e-08 -5.47897e-07  -1.31773e-08 3.24162e-08 -7.03226e-07  -3.34834e-09 -1.85402e-07 -8.65814e-07  1.92228e-07 5.54594e-07 -8.03469e-07  1.43129e-07 -2.56317e-08 -5.47875e-07  -7.07118e-08 -8.14548e-08 -3.29326e-07  -2.77413e-07 8.96944e-08 -5.50795e-07  -3.78288e-07 -2.86551e-07 -8.05532e-07  8.86183e-08 4.01043e-07 -8.69367e-07  8.11217e-08 3.85858e-08 -7.0335e-07  9.67865e-08 -2.07875e-07 -5.50751e-07  1.18459e-07 9.99176e-08 -6.97244e-07  8.73668e-08 -2.84737e-07 -8.87009e-07  -3.89866e-07 3.33926e-07 -9.70711e-07  -4.62873e-07 7.03503e-08 -8.66114e-07  -7.15449e-07 -2.24625e-07 -8.06001e-07  -8.66314e-07 5.25846e-08 -8.87457e-07  -8.27995e-07 -2.889e-07 -9.70127e-07  
            </DataArray>
            <DataArray type="Float64" Name="Velocity" NumberOfComponents="3" format="ascii">
               1.70077e-06 1.7736e-06 -1.68491e-06  1.6517e-06 -9.90583e-08 -1.58185e-06  1.42792e-06 -1.98549e-07 -1.44625e-06  1.18975e-06 3.34639e-08 -1.53683e-06  1.11895e-06 -1.88904e-07 -1.69707e-06  -7.33929e-08 1.59937e-06 -1.58243e-06  -1.59576e-08 -1.03882e-07 -1.30026e-06  -4.07347e-08 -1.57495e-07 -1.1184e-06  -7.87188e-08 7.4026e-08 -1.33256e-06  -8.07594e-08 -3.05194e-07 -1.5193e-06  3.49984e-07 1.20857e-06 -1.44594e-06  2.8665e-07 -3.07535e-08 -1.11831e-06  -1.27056e-07 -2.2231e-07 -8.45127e-07  -5.52671e-07 1.92614e-07 -1.12596e-06  -7.56311e-07 -4.6944e-07 -1.44846e-06  2.3814e-07 9.0459e-07 -1.53543e-06  2.23822e-07 6.82162e-08 -1.33294e-06  2.01406e-07 -4.06237e-07 -1.12554e-06  2.10685e-07 2.2716e-07 -1.30857e-06  1.47652e-07 -3.97466e-07 -1.57938e-06  -9.4374e-07 7.68491e-07 -1.69564e-06  -1.08735e-06 1.39072e-07 -1.52045e-06  -1.55895e-06 -4.06903e-07 -1.44997e-06  -1.79966e-06 1.45822e-07 -1.581e-06  -1.6988e-06 -3.63295e-07 -1.68807e-06  
            </DataArray>
            <DataArray type="Float64" Name="Traction" NumberOfComponents="3" format="ascii">
               3.45451e-05 3.40565e-05 -0.000140928  -1.11831e-05 3.08498e-05 -0.000140928  -5.13126e-06 -5.99307e-07 -0.000140928  2.02211e-06 1.58651e-05 -0.000140928  -3.32392e-05 3.82455e-05 -0.000140928  2.41596e-05 -1.18854e-05 -0.000140928  -2.37448e-06 -4.8435e-06 -0.000140928  -2.52068e-07 -5.73172e-06 -0.000140928  4.28767e-06 -1.90545e-06 -0.000140928  -4.14023e-05 5.20911e-06 -0.000140928  2.66159e-05 -2.38594e-06 -0.000140928  -2.92815e-06 -1.64648e-06 -0.000140928  -8.53219e-07 -4.79347e-07 -0.000140928  1.14598e-05 1.35481e-06 -0.000140928  -4.67479e-05 3.90717e-06 -0.000140928  3.01473e-05 4.56753e-06 -0.000140928  -1.325e-06 5.79621e-06 -0.000140928  2.55927e-06 8.41867e-06 -0.000140928  4.70983e-06 4.27197e-06 -0.000140928  -3.20531e-05 -2.31039e-06 -0.000140928  2.64383e-05 -2.05817e-05 -0.000140928  1.75241e-06 -3.13894e-05 -0.000140928  3.66919e-06 -2.31139e-05 -0.000140928  3.5762e-06 -6.10325e-06 -0.000140928  -5.96995e-06 -9.90222e-06 -0.000140928  
            </DataArray>
         </PointData> 
      </Piece>
   </UnstructuredGrid> 
</VTKFile>
