<?xml version="1.0"?>
<VTKFile type="UnstructuredGrid" version="0.1" byte_order="LittleEndian">
   <UnstructuredGrid>
      <Piece NumberOfPoints="25" NumberOfCells="0" > 
         <Points> 
            <DataArray type="Float64" Name="Position" NumberOfComponents="3" format="ascii"> 
               0  0  15  
               0.75  0  15  
               1.5  0  15  
               2.25  0  15  
               3  0  15  
               0  0.75  15  
               0.75  0.75  15  
               1.5  0.75  15  
               2.25  0.75  15  
               3  0.75  15  
               0  1.5  15  
               0.75  1.5  15  
               1.5  1.5  15  
               2.25  1.5  15  
               3  1.5  15  
               0  2.25  15  
               0.75  2.25  15  
               1.5  2.25  15  
               2.25  2.25  15  
               3  2.25  15  
               0  3  15  
               0.75  3  15  
               1.5  3  15  
               2.25  3  15  
               3  3  15  
            </DataArray>
         </Points> 

         <Cells>
            <DataArray type="Int32" Name="connectivity" NumberOfComponents="1" format="ascii">
               
            </DataArray> 
            <DataArray type="Int32" Name="offsets" NumberOfComponents="1" format="ascii">
               
            </DataArray>
            <DataArray type="UInt8"  Name="types" NumberOfComponents="1" format="ascii">
               
            </DataArray>
         </Cells>
         <PointData Scalars="Rank " Vectors="Displacement Velocity Traction ">
            <DataArray type="UInt32" Name="Rank" NumberOfComponents="1" format="ascii">
               0 0 0 0 0 0 0 0 0 0 0 0 0 0 0 0 0 0 0 0 0 0 0 0 0 
            </DataArray>
            <DataArray type="Float64" Name="Displacement" NumberOfComponents="3" format="ascii">
               0.00109513 0.00111217 -0.000959997  0.00102721 0.000135586 -0.000950972  0.000782529 -0.000157647 -0.000908041  0.000499929 -0.000184508 -0.000950875  0.000393488 -0.000759106 -0.000962877  4.03193e-05 0.001045 -0.000947767  3.87996e-05 0.000131723 -0.000858934  -0.000121208 -7.31105e-05 -0.000788835  -0.000272412 -0.000180321 -0.000892024  -0.000258299 -0.000869154 -0.000928916  -0.000259967 0.000810154 -0.00090645  -0.000175062 -4.01738e-05 -0.000789677  -0.000288886 -0.000198045 -0.00066126  -0.000393156 -0.000362372 -0.000792305  -0.000303939 -0.00114415 -0.000902884  -0.00030889 0.000535685 -0.00095107  -0.000297961 -0.000205391 -0.000893472  -0.000460011 -0.000314142 -0.000792818  -0.00062141 -0.000545394 -0.000865578  -0.000623416 -0.00136732 -0.000945441  -0.000882465 0.000430237 -0.00096145  -0.000984021 -0.000201385 -0.000928202  -0.00123811 -0.000239081 -0.000901476  -0.00143922 -0.000562238 -0.000943192  -0.00148982 -0.00142754 -0.000951214  
            </DataArray>
            <DataArray type="Float64" Name="Velocity" NumberOfComponents="3" format="ascii">
               0.000451525 0.000570932 -0.000962586  0.000407638 2.61847e-05 -0.000974262  0.000269378 -0.000176452 -0.000945652  0.000114561 -0.000156868 -0.00098315  5.37435e-05 -0.000462936 -0.000978968  -0.000101221 0.000526315 -0.000967597  -0.000108767 1.7689e-05 -0.000909638  -0.000221955 -0.000122121 -0.000857358  -0.000330512 -0.000153749 -0.000946467  -0.000327649 -0.000534104 -0.000963406  -0.00028392 0.000388398 -0.000938821  -0.000231041 -9.59579e-05 -0.000857442  -0.000292119 -0.000179935 -0.000751302  -0.000354879 -0.000257557 -0.000861017  -0.000303982 -0.000700032 -0.00094487  -0.000269628 0.000233031 -0.000977933  -0.000268336 -0.000200877 -0.000947756  -0.00037856 -0.000235645 -0.00086146  -0.000493454 -0.00036441 -0.00091758  -0.000503328 -0.000837392 -0.000975138  -0.000609553 0.000170664 -0.000965602  -0.000680036 -0.000194376 -0.000958509  -0.000847935 -0.000178054 -0.000938951  -0.000989672 -0.000369609 -0.00096819  -0.00103446 -0.00088012 -0.00096212  
            </DataArray>
            <DataArray type="Float64" Name="Traction" NumberOfComponents="3" format="ascii">
               0.0203769 0.0212854 -0.0565168  0.00368133 0.024846 -0.0565168  -0.00548214 0.0258435 -0.0565168  -0.014719 0.0261076 -0.0565168  -0.031032 0.0280618 -0.0565168  0.0254817 0.00484197 -0.0565168  0.00804131 0.00923696 -0.0565168  -0.0012108 0.00975337 -0.0565168  -0.0115315 0.00932012 -0.0565168  -0.0275397 0.0123453 -0.0565168  0.0262488 -0.00478093 -0.0565168  0.00796749 -0.000307383 -0.0565168  -0.00163536 -0.000634185 -0.0565168  -0.0126063 -0.00114433 -0.0565168  -0.0284808 0.00267581 -0.0565168  0.0260815 -0.0143068 -0.0565168  0.00792304 -0.0110739 -0.0565168  -0.00198133 -0.0122345 -0.0565168  -0.0126316 -0.0124504 -0.0565168  -0.0245285 -0.00950554 -0.0565168  0.028051 -0.0316174 -0.0565168  0.0111314 -0.0269433 -0.0565168  0.00223677 -0.0272789 -0.0565168  -0.00933604 -0.0244738 -0.0565168  -0.017506 -0.0176862 -0.0565168  
            </DataArray>
         </PointData> 
      </Piece>
   </UnstructuredGrid> 
</VTKFile>
