<?xml version="1.0"?>
<VTKFile type="UnstructuredGrid" version="0.1" byte_order="LittleEndian">
   <UnstructuredGrid>
      <Piece NumberOfPoints="25" NumberOfCells="0" > 
         <Points> 
            <DataArray type="Float64" Name="Position" NumberOfComponents="3" format="ascii"> 
               0  0  15  
               0.75  0  15  
               1.5  0  15  
               2.25  0  15  
               3  0  15  
               0  0.75  15  
               0.75  0.75  15  
               1.5  0.75  15  
               2.25  0.75  15  
               3  0.75  15  
               0  1.5  15  
               0.75  1.5  15  
               1.5  1.5  15  
               2.25  1.5  15  
               3  1.5  15  
               0  2.25  15  
               0.75  2.25  15  
               1.5  2.25  15  
               2.25  2.25  15  
               3  2.25  15  
               0  3  15  
               0.75  3  15  
               1.5  3  15  
               2.25  3  15  
               3  3  15  
            </DataArray>
         </Points> 

         <Cells>
            <DataArray type="Int32" Name="connectivity" NumberOfComponents="1" format="ascii">
               
            </DataArray> 
            <DataArray type="Int32" Name="offsets" NumberOfComponents="1" format="ascii">
               
            </DataArray>
            <DataArray type="UInt8"  Name="types" NumberOfComponents="1" format="ascii">
               
            </DataArray>
         </Cells>
         <PointData Scalars="Rank " Vectors="Displacement Velocity Traction ">
            <DataArray type="UInt32" Name="Rank" NumberOfComponents="1" format="ascii">
               0 0 0 0 0 0 0 0 0 0 0 0 0 0 0 0 0 0 0 0 0 0 0 0 0 
            </DataArray>
            <DataArray type="Float64" Name="Displacement" NumberOfComponents="3" format="ascii">
               2.55374e-08 3.10577e-08 -5.56683e-08  2.28707e-08 -4.88005e-09 -5.03188e-08  1.61948e-08 7.52097e-09 -4.53238e-08  9.64893e-09 8.10523e-10 -5.01962e-08  7.60393e-09 -3.7896e-09 -5.55124e-08  -4.0877e-09 2.7388e-08 -5.03189e-08  -4.01335e-09 -5.3122e-09 -3.69685e-08  -1.8151e-09 5.18715e-09 -2.42709e-08  2.20485e-09 6.41608e-10 -3.69577e-08  3.54369e-09 -7.08193e-09 -5.02115e-08  1.10306e-08 1.63211e-08 -4.5325e-08  7.61694e-09 -1.5118e-09 -2.42703e-08  -2.65443e-09 -1.41996e-09 -4.06648e-09  -1.30376e-08 3.80008e-09 -2.42985e-08  -1.80767e-08 -1.52252e-08 -4.53735e-08  1.09436e-09 9.05226e-09 -5.01952e-08  7.09255e-10 2.60634e-09 -3.69583e-08  4.12836e-09 -1.10527e-08 -2.43001e-08  6.39053e-09 4.31912e-09 -3.69886e-08  4.40698e-09 -1.93853e-08 -5.03269e-08  -7.15388e-09 6.12181e-09 -5.55109e-08  -1.02703e-08 3.57138e-09 -5.02129e-08  -2.34465e-08 -1.36909e-08 -4.5376e-08  -3.19944e-08 1.15409e-09 -5.03295e-08  -3.02359e-08 -2.11349e-08 -5.56431e-08  
            </DataArray>
            <DataArray type="Float64" Name="Velocity" NumberOfComponents="3" format="ascii">
               1.18707e-07 1.49517e-07 -2.4187e-07  1.08417e-07 -2.11574e-08 -2.18051e-07  8.33907e-08 2.9305e-08 -1.96312e-07  5.70653e-08 5.78311e-09 -2.17139e-07  4.76138e-08 -2.32638e-08 -2.40982e-07  -1.74532e-08 1.32153e-07 -2.18053e-07  -1.6271e-08 -2.32605e-08 -1.60934e-07  -8.07346e-09 1.83568e-08 -1.08148e-07  7.48833e-09 4.55441e-09 -1.60925e-07  1.28881e-08 -3.79591e-08 -2.17221e-07  4.91255e-08 8.46347e-08 -1.9632e-07  3.25938e-08 -7.15354e-09 -1.08145e-07  -1.42724e-08 -8.20368e-09 -2.53979e-08  -5.87226e-08 1.68254e-08 -1.0834e-07  -8.08411e-08 -6.97488e-08 -1.96631e-07  8.11366e-09 5.25937e-08 -2.17133e-07  6.17828e-09 1.05477e-08 -1.60929e-07  1.86883e-08 -4.81098e-08 -1.08349e-07  2.85579e-08 1.88188e-08 -1.61074e-07  2.15308e-08 -8.46327e-08 -2.18101e-07  -4.34827e-08 3.88143e-08 -2.40971e-07  -5.8719e-08 1.54851e-08 -2.1723e-07  -1.15248e-07 -5.92979e-08 -1.9665e-07  -1.53397e-07 6.65259e-09 -2.18117e-07  -1.48628e-07 -9.24568e-08 -2.41726e-07  
            </DataArray>
            <DataArray type="Float64" Name="Traction" NumberOfComponents="3" format="ascii">
               2.29651e-06 2.46328e-06 -3.41675e-05  -5.5494e-07 2.58091e-06 -3.41675e-05  -4.74758e-08 5.29736e-07 -3.41675e-05  1.05735e-07 1.45947e-06 -3.41675e-05  -1.9196e-06 2.19149e-06 -3.41675e-05  1.70333e-06 -7.55463e-07 -3.41675e-05  -3.65839e-07 -5.23014e-07 -3.41675e-05  -5.58212e-08 -5.59725e-07 -3.41675e-05  5.8481e-07 -2.16842e-07 -3.41675e-05  -2.94324e-06 3.03199e-07 -3.41675e-05  1.72588e-06 -1.15156e-09 -3.41675e-05  -4.77231e-07 -3.15582e-08 -3.41675e-05  -1.09397e-07 -5.87917e-08 -3.41675e-05  1.16275e-06 9.53553e-08 -3.41675e-05  -3.67985e-06 1.77553e-07 -3.41675e-05  2.08743e-06 3.90724e-07 -3.41675e-05  -2.91098e-07 6.10578e-07 -3.41675e-05  8.94017e-08 8.83154e-07 -3.41675e-05  4.9688e-07 3.07764e-07 -3.41675e-05  -2.64801e-06 -2.33196e-07 -3.41675e-05  1.50872e-06 -1.28825e-06 -3.41675e-05  1.70502e-08 -2.61032e-06 -3.41675e-05  1.54284e-07 -2.13125e-06 -3.41675e-05  2.29843e-08 -1.14787e-06 -3.41675e-05  -1.36581e-06 -1.3561e-06 -3.41675e-05  
            </DataArray>
         </PointData> 
      </Piece>
   </UnstructuredGrid> 
</VTKFile>
