<?xml version="1.0"?>
<VTKFile type="UnstructuredGrid" version="0.1" byte_order="LittleEndian">
   <UnstructuredGrid>
      <Piece NumberOfPoints="25" NumberOfCells="0" > 
         <Points> 
            <DataArray type="Float64" Name="Position" NumberOfComponents="3" format="ascii"> 
               0  0  20  
               0.75  0  20  
               1.5  0  20  
               2.25  0  20  
               3  0  20  
               0  0.75  20  
               0.75  0.75  20  
               1.5  0.75  20  
               2.25  0.75  20  
               3  0.75  20  
               0  1.5  20  
               0.75  1.5  20  
               1.5  1.5  20  
               2.25  1.5  20  
               3  1.5  20  
               0  2.25  20  
               0.75  2.25  20  
               1.5  2.25  20  
               2.25  2.25  20  
               3  2.25  20  
               0  3  20  
               0.75  3  20  
               1.5  3  20  
               2.25  3  20  
               3  3  20  
            </DataArray>
         </Points> 

         <Cells>
            <DataArray type="Int32" Name="connectivity" NumberOfComponents="1" format="ascii">
               
            </DataArray> 
            <DataArray type="Int32" Name="offsets" NumberOfComponents="1" format="ascii">
               
            </DataArray>
            <DataArray type="UInt8"  Name="types" NumberOfComponents="1" format="ascii">
               
            </DataArray>
         </Cells>
         <PointData Scalars="Rank " Vectors="Displacement Velocity Traction ">
            <DataArray type="UInt32" Name="Rank" NumberOfComponents="1" format="ascii">
               0 0 0 0 0 0 0 0 0 0 0 0 0 0 0 0 0 0 0 0 0 0 0 0 0 
            </DataArray>
            <DataArray type="Float64" Name="Displacement" NumberOfComponents="3" format="ascii">
               0.000215615 0.000223209 -0.00096956  1.41854e-06 0.000381867 -0.000960778  -0.000134575 0.000450686 -0.000917354  -0.000120356 0.000322849 -0.000960377  -0.000250286 0.000417002 -0.000972757  0.000373979 8.30627e-06 -0.00095764  0.000114754 0.000121463 -0.000867534  -4.62336e-05 0.00019279 -0.00079688  -0.000126252 0.000126154 -0.000901179  -0.000319867 0.000218557 -0.000938364  0.000444446 -0.00012702 -0.000915844  0.000187138 -3.97932e-05 -0.00079771  -5.14127e-06 5.72247e-07 -0.000668121  -0.000182446 3.09521e-05 -0.000800507  -0.00043635 0.000124251 -0.000912498  0.000319092 -0.000113228 -0.000960629  0.000121905 -0.000119905 -0.000902611  2.59606e-05 -0.000176938 -0.00080103  -0.000116561 -0.000111477 -0.0008746  -0.000370681 -1.82952e-05 -0.000955778  0.000413412 -0.00024458 -0.000971402  0.000214515 -0.000313476 -0.000937713  0.000120059 -0.000430726 -0.000911182  -2.38739e-05 -0.000366182 -0.000953571  -0.000233948 -0.000227496 -0.000961631  
            </DataArray>
            <DataArray type="Float64" Name="Velocity" NumberOfComponents="3" format="ascii">
               0.000203136 0.000207572 -0.000971632  9.58284e-06 0.000350333 -0.000983104  -0.000122198 0.000412463 -0.000954044  -0.000118699 0.000301761 -0.000991699  -0.000233402 0.000394104 -0.000987828  0.000339844 1.26384e-05 -0.000976572  0.000105639 0.000113975 -0.000917145  -4.73766e-05 0.000180151 -0.000864182  -0.000128349 0.000124907 -0.000954546  -0.000300945 0.000212885 -0.000972068  0.000400935 -0.000116648 -0.000947324  0.000170805 -4.29333e-05 -0.00086425  -1.05581e-05 -5.22319e-06 -0.000756675  -0.000179671 2.7727e-05 -0.000868035  -0.000407482 0.000111645 -0.000953719  0.000290528 -0.000106006 -0.00098653  0.000116072 -0.000120618 -0.000955793  2.17394e-05 -0.00017192 -0.000868471  -0.000117332 -0.000108755 -0.00092558  -0.000349878 -2.85166e-05 -0.000984768  0.00038264 -0.000218462 -0.000974542  0.000201999 -0.000289516 -0.000967246  0.000105799 -0.000396998 -0.000947931  -3.24449e-05 -0.00033911 -0.000977948  -0.00022564 -0.000219826 -0.000972398  
            </DataArray>
            <DataArray type="Float64" Name="Traction" NumberOfComponents="3" format="ascii">
               -0.00151368 -0.00149835 -0.0114228  -0.000474535 -0.00269431 -0.0114228  0.000758684 -0.00312404 -0.0114228  0.000587816 -0.0020337 -0.0114228  0.00119273 -0.00237283 -0.0114228  -0.00269592 -0.00043115 -0.0114228  -0.00114294 -0.00111503 -0.0114228  0.000877331 -0.00173698 -0.0114228  0.00101005 -0.00114303 -0.0114228  0.00176034 -0.00120038 -0.0114228  -0.00314121 0.000816586 -0.0114228  -0.00177232 0.000923682 -0.0114228  0.000661101 0.000708743 -0.0114228  0.00156811 0.000177135 -0.0114228  0.00288051 -0.000173298 -0.0114228  -0.00206104 0.000628758 -0.0114228  -0.00117914 0.00104587 -0.0114228  0.000131376 0.00160554 -0.0114228  0.00099074 0.00102641 -0.0114228  0.00245922 0.000459255 -0.0114228  -0.00240272 0.00122432 -0.0114228  -0.00123573 0.00178417 -0.0114228  -0.000223543 0.00290755 -0.0114228  0.000428336 0.00248752 -0.0114228  0.00143513 0.00144727 -0.0114228  
            </DataArray>
         </PointData> 
      </Piece>
   </UnstructuredGrid> 
</VTKFile>
