<?xml version="1.0"?>
<VTKFile type="UnstructuredGrid" version="0.1" byte_order="LittleEndian">
   <UnstructuredGrid>
      <Piece NumberOfPoints="25" NumberOfCells="0" > 
         <Points> 
            <DataArray type="Float64" Name="Position" NumberOfComponents="3" format="ascii"> 
               0  0  20  
               0.75  0  20  
               1.5  0  20  
               2.25  0  20  
               3  0  20  
               0  0.75  20  
               0.75  0.75  20  
               1.5  0.75  20  
               2.25  0.75  20  
               3  0.75  20  
               0  1.5  20  
               0.75  1.5  20  
               1.5  1.5  20  
               2.25  1.5  20  
               3  1.5  20  
               0  2.25  20  
               0.75  2.25  20  
               1.5  2.25  20  
               2.25  2.25  20  
               3  2.25  20  
               0  3  20  
               0.75  3  20  
               1.5  3  20  
               2.25  3  20  
               3  3  20  
            </DataArray>
         </Points> 

         <Cells>
            <DataArray type="Int32" Name="connectivity" NumberOfComponents="1" format="ascii">
               
            </DataArray> 
            <DataArray type="Int32" Name="offsets" NumberOfComponents="1" format="ascii">
               
            </DataArray>
            <DataArray type="UInt8"  Name="types" NumberOfComponents="1" format="ascii">
               
            </DataArray>
         </Cells>
         <PointData Scalars="Rank " Vectors="Displacement Velocity Traction ">
            <DataArray type="UInt32" Name="Rank" NumberOfComponents="1" format="ascii">
               0 0 0 0 0 0 0 0 0 0 0 0 0 0 0 0 0 0 0 0 0 0 0 0 0 
            </DataArray>
            <DataArray type="Float64" Name="Displacement" NumberOfComponents="3" format="ascii">
               0 0 0  0 0 0  0 0 0  0 0 0  0 0 0  0 0 0  0 0 0  0 0 0  0 0 0  0 0 0  0 0 0  0 0 0  0 0 0  0 0 0  0 0 0  0 0 0  0 0 0  0 0 0  0 0 0  0 0 0  0 0 0  0 0 0  0 0 0  0 0 0  0 0 0  
            </DataArray>
            <DataArray type="Float64" Name="Velocity" NumberOfComponents="3" format="ascii">
               0 0 0  0 0 0  0 0 0  0 0 0  0 0 0  0 0 0  0 0 0  0 0 0  0 0 0  0 0 0  0 0 0  0 0 0  0 0 0  0 0 0  0 0 0  0 0 0  0 0 0  0 0 0  0 0 0  0 0 0  0 0 0  0 0 0  0 0 0  0 0 0  0 0 0  
            </DataArray>
            <DataArray type="Float64" Name="Traction" NumberOfComponents="3" format="ascii">
               -0.000128805 -0.000119504 -0.00102022  -5.46667e-05 -0.00017917 -0.00102022  1.9729e-05 -0.000242524 -0.00102022  3.57534e-05 -0.0001684 -0.00102022  0.000116967 -0.000137815 -0.00102022  -0.000181413 -4.91449e-05 -0.00102022  -6.88202e-05 -7.03449e-05 -0.00102022  5.95563e-05 -0.000123856 -0.00102022  7.87006e-05 -7.60187e-05 -0.00102022  0.000164165 -4.58153e-05 -0.00102022  -0.000245492 1.81532e-05 -0.00102022  -0.000122784 5.29388e-05 -0.00102022  5.60968e-05 4.99363e-05 -0.00102022  0.000126116 1.73361e-05 -0.00102022  0.000246435 7.03457e-06 -0.00102022  -0.000161628 4.05325e-05 -0.00102022  -6.80247e-05 7.90403e-05 -0.00102022  2.45858e-05 0.000121692 -0.00102022  7.84986e-05 7.53606e-05 -0.00102022  0.000194262 4.44449e-05 -0.00102022  -0.000130795 0.000127013 -0.00102022  -3.81496e-05 0.000172375 -0.00102022  1.54994e-05 0.000247406 -0.00102022  4.76107e-05 0.000193959 -0.00102022  0.000120034 0.000120076 -0.00102022  
            </DataArray>
         </PointData> 
      </Piece>
   </UnstructuredGrid> 
</VTKFile>
