<?xml version="1.0"?>
<VTKFile type="UnstructuredGrid" version="0.1" byte_order="LittleEndian">
   <UnstructuredGrid>
      <Piece NumberOfPoints="25" NumberOfCells="0" > 
         <Points> 
            <DataArray type="Float64" Name="Position" NumberOfComponents="3" format="ascii"> 
               0  0  15  
               0.75  0  15  
               1.5  0  15  
               2.25  0  15  
               3  0  15  
               0  0.75  15  
               0.75  0.75  15  
               1.5  0.75  15  
               2.25  0.75  15  
               3  0.75  15  
               0  1.5  15  
               0.75  1.5  15  
               1.5  1.5  15  
               2.25  1.5  15  
               3  1.5  15  
               0  2.25  15  
               0.75  2.25  15  
               1.5  2.25  15  
               2.25  2.25  15  
               3  2.25  15  
               0  3  15  
               0.75  3  15  
               1.5  3  15  
               2.25  3  15  
               3  3  15  
            </DataArray>
         </Points> 

         <Cells>
            <DataArray type="Int32" Name="connectivity" NumberOfComponents="1" format="ascii">
               
            </DataArray> 
            <DataArray type="Int32" Name="offsets" NumberOfComponents="1" format="ascii">
               
            </DataArray>
            <DataArray type="UInt8"  Name="types" NumberOfComponents="1" format="ascii">
               
            </DataArray>
         </Cells>
         <PointData Scalars="Rank " Vectors="Displacement Velocity Traction ">
            <DataArray type="UInt32" Name="Rank" NumberOfComponents="1" format="ascii">
               0 0 0 0 0 0 0 0 0 0 0 0 0 0 0 0 0 0 0 0 0 0 0 0 0 
            </DataArray>
            <DataArray type="Float64" Name="Displacement" NumberOfComponents="3" format="ascii">
               0.000235426 0.00014265 -1.30026e-05  0.000230023 3.47464e-05 -1.07807e-05  0.000204964 2.49483e-05 -8.92587e-06  0.000176059 1.11215e-05 -1.00055e-05  0.000167053 -4.94929e-05 -1.26124e-05  8.41105e-05 0.000139443 -1.1102e-05  8.65332e-05 3.69639e-05 -6.84998e-06  8.50371e-05 2.55991e-05 -3.3524e-06  8.63755e-05 6.38224e-06 -6.17066e-06  9.21881e-05 -5.85074e-05 -1.04548e-05  5.71561e-05 0.000119992 -9.10139e-06  6.0339e-05 2.85175e-05 -3.29323e-06  4.55263e-05 1.71883e-06 1.02408e-06  3.52615e-05 -1.41203e-05 -3.48669e-06  4.12627e-05 -8.24661e-05 -9.55525e-06  2.65251e-05 9.52931e-05 -9.96266e-06  2.917e-05 1.68646e-05 -6.06885e-06  2.66078e-05 -1.9769e-05 -3.39965e-06  2.6385e-05 -3.04684e-05 -6.72923e-06  2.84181e-05 -9.58759e-05 -1.13282e-05  -2.30154e-05 8.71712e-05 -1.26207e-05  -2.71794e-05 1.25606e-05 -1.04671e-05  -3.80119e-05 -2.62477e-05 -9.34058e-06  -3.83896e-05 -3.73575e-05 -1.11241e-05  -3.34182e-05 -9.45546e-05 -1.36031e-05  
            </DataArray>
            <DataArray type="Float64" Name="Velocity" NumberOfComponents="3" format="ascii">
               0.000163064 0.000135882 -3.90177e-05  0.000156496 3.28282e-05 -3.43906e-05  0.000131197 9.65102e-06 -3.03708e-05  0.00010174 -6.64226e-06 -3.26853e-05  9.09256e-05 -7.19317e-05 -3.78276e-05  4.61499e-05 0.000130048 -3.506e-05  4.72311e-05 3.32484e-05 -2.50745e-05  3.72581e-05 1.52508e-05 -1.88274e-05  2.92149e-05 -7.65313e-06 -2.52822e-05  3.23416e-05 -8.12709e-05 -3.20753e-05  1.22539e-05 0.00010621 -3.1161e-05  1.98867e-05 1.87751e-05 -1.8855e-05  8.8497e-06 -2.44849e-06 -9.42603e-06  9.91947e-07 -2.7566e-05 -1.90666e-05  1.07541e-05 -0.000107107 -3.03156e-05  -8.22904e-06 7.81762e-05 -3.32057e-05  -5.72958e-06 3.90696e-06 -2.51056e-05  -1.58469e-05 -1.85839e-05 -1.89372e-05  -2.51157e-05 -4.71085e-05 -2.51777e-05  -2.30036e-05 -0.000128942 -3.40031e-05  -5.55457e-05 6.82116e-05 -3.89333e-05  -6.26133e-05 2.13132e-06 -3.24115e-05  -8.07688e-05 -1.6574e-05 -3.06402e-05  -9.38432e-05 -5.12018e-05 -3.45168e-05  -9.57971e-05 -0.000134423 -3.80513e-05  
            </DataArray>
            <DataArray type="Float64" Name="Traction" NumberOfComponents="3" format="ascii">
               0.00311224 0.00291325 -0.00386914  -0.0004222 0.00319174 -0.00386914  -0.000345425 0.00339226 -0.00386914  -0.000295471 0.00367923 -0.00386914  -0.00400826 0.0035042 -0.00386914  0.00388392 -0.000459395 -0.00386914  0.000367179 0.000673503 -0.00386914  6.58075e-05 0.00128974 -0.00386914  2.79709e-06 0.000664073 -0.00386914  -0.00311662 0.000368843 -0.00386914  0.00384027 -0.000521259 -0.00386914  0.000505407 9.23728e-05 -0.00386914  -3.79592e-05 1.45535e-05 -0.00386914  -0.000475545 -0.000195326 -0.00386914  -0.00366678 0.000143217 -0.00386914  0.00381063 -0.000418349 -0.00386914  6.86324e-05 -0.000407418 -0.00386914  -0.000238615 -0.00121513 -0.00386914  -0.000538428 -0.00119493 -0.00386914  -0.00177894 -0.00105875 -0.00386914  0.00380589 -0.00449682 -0.00386914  -7.45626e-07 -0.00329462 -0.00386914  0.000273609 -0.0036328 -0.00386914  -0.000561012 -0.00239383 -0.00386914  0.000222488 -0.000175358 -0.00386914  
            </DataArray>
         </PointData> 
      </Piece>
   </UnstructuredGrid> 
</VTKFile>
