<?xml version="1.0"?>
<VTKFile type="UnstructuredGrid" version="0.1" byte_order="LittleEndian">
   <UnstructuredGrid>
      <Piece NumberOfPoints="25" NumberOfCells="0" > 
         <Points> 
            <DataArray type="Float64" Name="Position" NumberOfComponents="3" format="ascii"> 
               0  0  15  
               0.75  0  15  
               1.5  0  15  
               2.25  0  15  
               3  0  15  
               0  0.75  15  
               0.75  0.75  15  
               1.5  0.75  15  
               2.25  0.75  15  
               3  0.75  15  
               0  1.5  15  
               0.75  1.5  15  
               1.5  1.5  15  
               2.25  1.5  15  
               3  1.5  15  
               0  2.25  15  
               0.75  2.25  15  
               1.5  2.25  15  
               2.25  2.25  15  
               3  2.25  15  
               0  3  15  
               0.75  3  15  
               1.5  3  15  
               2.25  3  15  
               3  3  15  
            </DataArray>
         </Points> 

         <Cells>
            <DataArray type="Int32" Name="connectivity" NumberOfComponents="1" format="ascii">
               
            </DataArray> 
            <DataArray type="Int32" Name="offsets" NumberOfComponents="1" format="ascii">
               
            </DataArray>
            <DataArray type="UInt8"  Name="types" NumberOfComponents="1" format="ascii">
               
            </DataArray>
         </Cells>
         <PointData Scalars="Rank " Vectors="Displacement Velocity Traction ">
            <DataArray type="UInt32" Name="Rank" NumberOfComponents="1" format="ascii">
               0 0 0 0 0 0 0 0 0 0 0 0 0 0 0 0 0 0 0 0 0 0 0 0 0 
            </DataArray>
            <DataArray type="Float64" Name="Displacement" NumberOfComponents="3" format="ascii">
               0.000172155 9.27154e-05 -1.48366e-06  0.000169095 2.19219e-05 -9.48672e-07  0.000153025 1.95857e-05 -4.76256e-07  0.000134502 1.24474e-05 -8.24014e-07  0.000129235 -2.46761e-05 -1.44202e-06  6.39585e-05 9.14334e-05 -1.03221e-06  6.59077e-05 2.38931e-05 -2.27693e-07  6.7307e-05 1.8653e-05 1.07932e-06  7.06892e-05 8.35682e-06 3.46531e-07  7.51553e-05 -3.04601e-05 -1.34545e-06  4.92427e-05 8.03518e-05 -4.05436e-07  4.98495e-05 2.02997e-05 1.13528e-06  3.8924e-05 1.60733e-06 2.3093e-06  3.12552e-05 -4.886e-06 1.02121e-06  3.38236e-05 -4.53913e-05 -1.02457e-06  2.72707e-05 6.55207e-05 -6.45039e-07  2.8902e-05 1.38213e-05 3.82909e-07  2.92395e-05 -1.36835e-05 1.05551e-06  3.15947e-05 -1.43073e-05 -1.02736e-07  3.27766e-05 -5.13155e-05 -1.52413e-06  -6.30569e-06 6.08213e-05 -1.16171e-06  -8.19917e-06 1.03968e-05 -1.27152e-06  -1.32279e-05 -2.02621e-05 -7.5295e-07  -9.69466e-06 -1.95333e-05 -1.19837e-06  -4.32614e-06 -4.82955e-05 -2.2682e-06  
            </DataArray>
            <DataArray type="Float64" Name="Velocity" NumberOfComponents="3" format="ascii">
               0.000130959 9.69123e-05 -1.59371e-05  0.000126563 2.64435e-05 -1.27558e-05  0.000109787 1.45125e-05 -1.03011e-05  9.06278e-05 5.96259e-08 -1.14647e-05  8.39181e-05 -4.44734e-05 -1.54592e-05  4.64702e-05 9.36981e-05 -1.31842e-05  4.75737e-05 2.71562e-05 -7.10093e-06  4.37569e-05 1.64591e-05 -3.10359e-06  4.19361e-05 -1.88556e-06 -6.49024e-06  4.50299e-05 -5.02946e-05 -1.16823e-05  2.32763e-05 7.83612e-05 -1.06599e-05  2.77453e-05 1.88072e-05 -3.06586e-06  2.05409e-05 2.35721e-06 2.26237e-06  1.61143e-05 -1.58847e-05 -3.22163e-06  2.23869e-05 -6.67709e-05 -1.06903e-05  3.94773e-06 6.0177e-05 -1.15981e-05  6.14087e-06 9.39362e-06 -6.37063e-06  2.39258e-06 -1.03142e-05 -3.11251e-06  -7.1416e-07 -2.87036e-05 -7.03128e-06  1.07594e-06 -7.99971e-05 -1.29659e-05  -2.40047e-05 5.407e-05 -1.57364e-05  -2.76734e-05 7.14816e-06 -1.17584e-05  -3.69722e-05 -1.16061e-05 -1.06486e-05  -4.24623e-05 -3.22813e-05 -1.30334e-05  -4.24643e-05 -8.2479e-05 -1.59957e-05  
            </DataArray>
            <DataArray type="Float64" Name="Traction" NumberOfComponents="3" format="ascii">
               0.00223133 0.00201864 -0.00171199  -0.000421668 0.00213746 -0.00171199  -0.000150157 0.00229328 -0.00171199  4.84728e-05 0.00253347 -0.00171199  -0.00278626 0.00233833 -0.00171199  0.00280362 -0.000494097 -0.00171199  0.000213771 0.000393085 -0.00171199  0.000124685 0.000957538 -0.00171199  0.000250482 0.000393819 -0.00171199  -0.00211798 4.28346e-05 -0.00171199  0.00279668 -0.000309324 -0.00171199  0.000388 0.000102328 -0.00171199  6.24894e-05 5.24832e-05 -0.00171199  -0.000133356 -0.000114576 -0.00171199  -0.00261299 6.94098e-05 -0.00171199  0.00276681 -5.19986e-05 -0.00171199  -1.6708e-05 -0.000124238 -0.00171199  -0.000107003 -0.000795923 -0.00171199  -0.000155053 -0.000724536 -0.00171199  -0.000965553 -0.000667682 -0.00171199  0.0027105 -0.00317691 -0.00171199  -0.000163837 -0.00226557 -0.00171199  0.000227466 -0.00256225 -0.00171199  -0.000244923 -0.0014517 -0.00171199  0.000678604 0.000368029 -0.00171199  
            </DataArray>
         </PointData> 
      </Piece>
   </UnstructuredGrid> 
</VTKFile>
