<?xml version="1.0"?>
<VTKFile type="UnstructuredGrid" version="0.1" byte_order="LittleEndian">
   <UnstructuredGrid>
      <Piece NumberOfPoints="25" NumberOfCells="0" > 
         <Points> 
            <DataArray type="Float64" Name="Position" NumberOfComponents="3" format="ascii"> 
               0  0  15  
               0.75  0  15  
               1.5  0  15  
               2.25  0  15  
               3  0  15  
               0  0.75  15  
               0.75  0.75  15  
               1.5  0.75  15  
               2.25  0.75  15  
               3  0.75  15  
               0  1.5  15  
               0.75  1.5  15  
               1.5  1.5  15  
               2.25  1.5  15  
               3  1.5  15  
               0  2.25  15  
               0.75  2.25  15  
               1.5  2.25  15  
               2.25  2.25  15  
               3  2.25  15  
               0  3  15  
               0.75  3  15  
               1.5  3  15  
               2.25  3  15  
               3  3  15  
            </DataArray>
         </Points> 

         <Cells>
            <DataArray type="Int32" Name="connectivity" NumberOfComponents="1" format="ascii">
               
            </DataArray> 
            <DataArray type="Int32" Name="offsets" NumberOfComponents="1" format="ascii">
               
            </DataArray>
            <DataArray type="UInt8"  Name="types" NumberOfComponents="1" format="ascii">
               
            </DataArray>
         </Cells>
         <PointData Scalars="Rank " Vectors="Displacement Velocity Traction ">
            <DataArray type="UInt32" Name="Rank" NumberOfComponents="1" format="ascii">
               0 0 0 0 0 0 0 0 0 0 0 0 0 0 0 0 0 0 0 0 0 0 0 0 0 
            </DataArray>
            <DataArray type="Float64" Name="Displacement" NumberOfComponents="3" format="ascii">
               0.000880484 0.000844785 -0.000569977  0.000832287 0.000121321 -0.000557103  0.00065185 -8.00788e-05 -0.000526883  0.000441932 -0.000114575 -0.000554042  0.00036377 -0.000545408 -0.000566929  8.38555e-05 0.000797679 -0.000556633  8.51333e-05 0.000120619 -0.000493035  -2.32769e-05 -2.12764e-05 -0.000445358  -0.000124729 -0.000112566 -0.00051135  -0.000112167 -0.000623282 -0.00054042  -0.000133896 0.000626658 -0.000527862  -7.37809e-05 3.48195e-07 -0.000446054  -0.000159129 -0.000119479 -0.000362287  -0.00023449 -0.000246932 -0.000447464  -0.000169227 -0.000821969 -0.000522569  -0.000188297 0.000424882 -0.000555969  -0.000178506 -0.000117016 -0.00051211  -0.00028978 -0.00020999 -0.000447716  -0.000398618 -0.000380842 -0.000496622  -0.000396876 -0.000982014 -0.000551864  -0.000602933 0.000348381 -0.000570163  -0.000672665 -0.000116312 -0.000541389  -0.00084959 -0.000161918 -0.00052327  -0.000985792 -0.000395749 -0.000552278  -0.00101655 -0.00102303 -0.000561967  
            </DataArray>
            <DataArray type="Float64" Name="Velocity" NumberOfComponents="3" format="ascii">
               0.00040372 0.000494052 -0.000614977  0.000368852 3.11524e-05 -0.000618614  0.000251435 -0.000131877 -0.000596199  0.000117226 -0.000121935 -0.000621866  6.5423e-05 -0.000388002 -0.000622188  -7.11043e-05 0.00045851 -0.000614502  -7.50475e-05 2.66391e-05 -0.000570707  -0.000167424 -8.4202e-05 -0.000532911  -0.000256922 -0.00011673 -0.00059368  -0.000253729 -0.000445224 -0.000607974  -0.000217654 0.000342328 -0.000592801  -0.000172164 -6.55634e-05 -0.00053336  -0.000224601 -0.000133228 -0.000459894  -0.000277079 -0.000202977 -0.000534888  -0.000232811 -0.00058326 -0.000593675  -0.000210825 0.000208624 -0.00062009  -0.000207837 -0.000151357 -0.000595026  -0.000299701 -0.000179802 -0.000535433  -0.000394098 -0.000291959 -0.000575255  -0.000399449 -0.000697474 -0.000616659  -0.000502241 0.000155763 -0.000616852  -0.000558749 -0.000144949 -0.000606082  -0.000698105 -0.00013035 -0.000591143  -0.000814841 -0.000294908 -0.000613077  -0.000849293 -0.000731576 -0.000612187  
            </DataArray>
            <DataArray type="Float64" Name="Traction" NumberOfComponents="3" format="ascii">
               0 0 0  0 0 0  0 0 0  0 0 0  0 0 0  0 0 0  0 0 0  0 0 0  0 0 0  0 0 0  0 0 0  0 0 0  0 0 0  0 0 0  0 0 0  0 0 0  0 0 0  0 0 0  0 0 0  0 0 0  0 0 0  0 0 0  0 0 0  0 0 0  0 0 0  
            </DataArray>
         </PointData> 
      </Piece>
   </UnstructuredGrid> 
</VTKFile>
