<?xml version="1.0"?>
<VTKFile type="UnstructuredGrid" version="0.1" byte_order="LittleEndian">
   <UnstructuredGrid>
      <Piece NumberOfPoints="25" NumberOfCells="0" > 
         <Points> 
            <DataArray type="Float64" Name="Position" NumberOfComponents="3" format="ascii"> 
               0  0  20  
               0.75  0  20  
               1.5  0  20  
               2.25  0  20  
               3  0  20  
               0  0.75  20  
               0.75  0.75  20  
               1.5  0.75  20  
               2.25  0.75  20  
               3  0.75  20  
               0  1.5  20  
               0.75  1.5  20  
               1.5  1.5  20  
               2.25  1.5  20  
               3  1.5  20  
               0  2.25  20  
               0.75  2.25  20  
               1.5  2.25  20  
               2.25  2.25  20  
               3  2.25  20  
               0  3  20  
               0.75  3  20  
               1.5  3  20  
               2.25  3  20  
               3  3  20  
            </DataArray>
         </Points> 

         <Cells>
            <DataArray type="Int32" Name="connectivity" NumberOfComponents="1" format="ascii">
               
            </DataArray> 
            <DataArray type="Int32" Name="offsets" NumberOfComponents="1" format="ascii">
               
            </DataArray>
            <DataArray type="UInt8"  Name="types" NumberOfComponents="1" format="ascii">
               
            </DataArray>
         </Cells>
         <PointData Scalars="Rank " Vectors="Displacement Velocity Traction ">
            <DataArray type="UInt32" Name="Rank" NumberOfComponents="1" format="ascii">
               0 0 0 0 0 0 0 0 0 0 0 0 0 0 0 0 0 0 0 0 0 0 0 0 0 
            </DataArray>
            <DataArray type="Float64" Name="Displacement" NumberOfComponents="3" format="ascii">
               3.51584e-09 3.51547e-09 -1.15132e-08  1.34756e-10 5.88934e-09 -1.04308e-08  -8.70076e-11 8.18633e-09 -9.38599e-09  -2.31446e-10 5.82437e-09 -1.04217e-08  -3.59897e-09 3.70451e-09 -1.14987e-08  5.88994e-09 1.35008e-10 -1.04308e-08  8.90009e-10 8.90147e-10 -7.58915e-09  -2.63575e-11 1.64083e-09 -4.81161e-09  -8.69075e-10 8.60076e-10 -7.58697e-09  -5.8189e-09 3.14492e-10 -1.04236e-08  8.18597e-09 -8.68122e-11 -9.38602e-09  1.64084e-09 -2.62078e-11 -4.81163e-09  2.83642e-11 2.82996e-11 -3.23754e-10  -1.60995e-09 2.72941e-11 -4.81388e-09  -8.16475e-09 9.90595e-11 -9.39026e-09  5.82415e-09 -2.31533e-10 -1.04217e-08  8.60102e-10 -8.69136e-10 -7.58701e-09  2.74681e-11 -1.60997e-09 -4.81398e-09  -8.82768e-10 -8.82537e-10 -7.59076e-09  -5.88747e-09 -1.47877e-10 -1.04316e-08  3.70475e-09 -3.59917e-09 -1.14986e-08  3.14429e-10 -5.81896e-09 -1.04237e-08  9.99034e-11 -8.1653e-09 -9.39047e-09  -1.48227e-10 -5.88878e-09 -1.04317e-08  -3.51459e-09 -3.51509e-09 -1.15107e-08  
            </DataArray>
            <DataArray type="Float64" Name="Velocity" NumberOfComponents="3" format="ascii">
               2.61523e-08 2.61478e-08 -8.63921e-08  8.5734e-10 4.40542e-08 -7.8204e-08  -9.43393e-10 6.10545e-08 -7.03594e-08  -1.90447e-09 4.33631e-08 -7.81025e-08  -2.70406e-08 2.81681e-08 -8.62449e-08  4.40606e-08 8.59988e-10 -7.82042e-08  6.76454e-09 6.76609e-09 -5.69661e-08  -2.7772e-10 1.24721e-08 -3.63394e-08  -6.54085e-09 6.44787e-09 -5.69465e-08  -4.33055e-08 2.78641e-09 -7.81221e-08  6.10507e-08 -9.41325e-10 -7.03597e-08  1.24723e-08 -2.75958e-10 -3.63396e-08  2.98804e-10 2.98036e-10 -3.13177e-09  -1.21446e-08 2.87784e-10 -3.63641e-08  -6.08273e-08 1.06895e-09 -7.04045e-08  4.33604e-08 -1.90527e-09 -7.81021e-08  6.44797e-09 -6.54157e-09 -5.69469e-08  2.89859e-10 -1.2145e-08 -3.63651e-08  -6.68694e-09 -6.68465e-09 -5.69836e-08  -4.4033e-08 -9.96508e-10 -7.82121e-08  2.81707e-08 -2.7043e-08 -8.62439e-08  2.78573e-09 -4.33062e-08 -7.81228e-08  1.07778e-09 -6.08331e-08 -7.04067e-08  -1.00052e-09 -4.40474e-08 -7.82133e-08  -2.614e-08 -2.61464e-08 -8.63668e-08  
            </DataArray>
            <DataArray type="Float64" Name="Traction" NumberOfComponents="3" format="ascii">
               -2.56196e-08 -2.58377e-08 -3.87276e-06  -6.92818e-09 -4.38344e-08 -3.87276e-06  4.54865e-09 -6.43983e-08 -3.87276e-06  5.44841e-09 -4.38165e-08 -3.87276e-06  2.40291e-08 -2.45817e-08 -3.87276e-06  -4.39151e-08 -7.16826e-09 -3.87276e-06  -1.69989e-08 -1.69279e-08 -3.87276e-06  1.39087e-08 -2.93821e-08 -3.87276e-06  1.69951e-08 -1.71439e-08 -3.87276e-06  4.35291e-08 -5.87336e-09 -3.87276e-06  -6.45894e-08 4.5667e-09 -3.87276e-06  -2.94974e-08 1.38751e-08 -3.87276e-06  2.20893e-08 2.20284e-08 -3.87276e-06  2.97047e-08 1.32127e-08 -3.87276e-06  6.50177e-08 5.65736e-09 -3.87276e-06  -4.38523e-08 5.45249e-09 -3.87276e-06  -1.71296e-08 1.69823e-08 -3.87276e-06  1.31977e-08 2.95988e-08 -3.87276e-06  1.68304e-08 1.69542e-08 -3.87276e-06  4.39734e-08 6.87669e-09 -3.87276e-06  -2.44382e-08 2.40719e-08 -3.87276e-06  -5.77562e-09 4.35529e-08 -3.87276e-06  6.05823e-09 6.47043e-08 -3.87276e-06  7.53334e-09 4.41642e-08 -3.87276e-06  2.56556e-08 2.53277e-08 -3.87276e-06  
            </DataArray>
         </PointData> 
      </Piece>
   </UnstructuredGrid> 
</VTKFile>
