<?xml version="1.0"?>
<VTKFile type="UnstructuredGrid" version="0.1" byte_order="LittleEndian">
   <UnstructuredGrid>
      <Piece NumberOfPoints="25" NumberOfCells="0" > 
         <Points> 
            <DataArray type="Float64" Name="Position" NumberOfComponents="3" format="ascii"> 
               0  0  15  
               0.75  0  15  
               1.5  0  15  
               2.25  0  15  
               3  0  15  
               0  0.75  15  
               0.75  0.75  15  
               1.5  0.75  15  
               2.25  0.75  15  
               3  0.75  15  
               0  1.5  15  
               0.75  1.5  15  
               1.5  1.5  15  
               2.25  1.5  15  
               3  1.5  15  
               0  2.25  15  
               0.75  2.25  15  
               1.5  2.25  15  
               2.25  2.25  15  
               3  2.25  15  
               0  3  15  
               0.75  3  15  
               1.5  3  15  
               2.25  3  15  
               3  3  15  
            </DataArray>
         </Points> 

         <Cells>
            <DataArray type="Int32" Name="connectivity" NumberOfComponents="1" format="ascii">
               
            </DataArray> 
            <DataArray type="Int32" Name="offsets" NumberOfComponents="1" format="ascii">
               
            </DataArray>
            <DataArray type="UInt8"  Name="types" NumberOfComponents="1" format="ascii">
               
            </DataArray>
         </Cells>
         <PointData Scalars="Rank " Vectors="Displacement Velocity Traction ">
            <DataArray type="UInt32" Name="Rank" NumberOfComponents="1" format="ascii">
               0 0 0 0 0 0 0 0 0 0 0 0 0 0 0 0 0 0 0 0 0 0 0 0 0 
            </DataArray>
            <DataArray type="Float64" Name="Displacement" NumberOfComponents="3" format="ascii">
               0.00137665 0.0014741 -0.00173257  0.00127906 0.000150125 -0.00173192  0.000946326 -0.000276087 -0.00166731  0.00056695 -0.000290283 -0.0017399  0.000421626 -0.00105696 -0.00174796  -2.82567e-05 0.00137668 -0.00172428  -3.67391e-05 0.000138492 -0.00158905  -0.000271049 -0.000158874 -0.00147742  -0.000492664 -0.000286131 -0.00165166  -0.000477543 -0.00121476 -0.00170275  -0.000449607 0.0010534 -0.00166057  -0.000332363 -0.000108473 -0.00147806  -0.000485414 -0.000321657 -0.00126502  -0.000630582 -0.000535575 -0.00148426  -0.000510184 -0.00159749 -0.00166225  -0.000489403 0.000681322 -0.00173562  -0.000479271 -0.00034236 -0.00165357  -0.000712322 -0.000474653 -0.00148487  -0.000948579 -0.000788272 -0.00160254  -0.000959057 -0.00191012 -0.00172796  -0.00127543 0.000535968 -0.00173565  -0.00142436 -0.00033522 -0.00169793  -0.00178745 -0.000364254 -0.00165612  -0.002081 -0.000810249 -0.0017207  -0.00216245 -0.00199948 -0.00172356  
            </DataArray>
            <DataArray type="Float64" Name="Velocity" NumberOfComponents="3" format="ascii">
               0.000478669 0.000624943 -0.00167402  0.000423658 2.3369e-05 -0.0016877  0.000271428 -0.000212973 -0.00164139  0.000107731 -0.000193291 -0.00170585  3.99259e-05 -0.000520462 -0.00169773  -0.00012362 0.000568677 -0.00168021  -0.000140606 4.69614e-06 -0.00157655  -0.00027351 -0.000161016 -0.00148561  -0.000397701 -0.000197667 -0.0016399  -0.000398033 -0.000608199 -0.00167371  -0.000340956 0.000414619 -0.00163155  -0.000288608 -0.000130304 -0.00148476  -0.000357905 -0.000229173 -0.00130068  -0.000431033 -0.000316774 -0.00149366  -0.000380178 -0.000798711 -0.00164204  -0.000327492 0.000248637 -0.00169636  -0.000332514 -0.000252521 -0.00163993  -0.000456931 -0.000296406 -0.00149345  -0.000589701 -0.000440748 -0.00159214  -0.000609023 -0.000957573 -0.00169159  -0.00068639 0.000179042 -0.00167563  -0.000773634 -0.000249501 -0.00166515  -0.00096635 -0.000238647 -0.00163265  -0.00113058 -0.00045388 -0.00168247  -0.00118873 -0.00101221 -0.00167243  
            </DataArray>
            <DataArray type="Float64" Name="Traction" NumberOfComponents="3" format="ascii">
               0.0272849 0.0283582 -0.075654  0.00603911 0.0331159 -0.075654  -0.00737987 0.0343894 -0.075654  -0.0210787 0.0343989 -0.075654  -0.0412997 0.0368928 -0.075654  0.0337162 0.00743195 -0.075654  0.0117292 0.0130082 -0.075654  -0.00132363 0.0134788 -0.075654  -0.0164064 0.0131582 -0.075654  -0.0368739 0.0173998 -0.075654  0.0348924 -0.00639693 -0.075654  0.0116668 -0.000265093 -0.075654  -0.00166489 -0.000492481 -0.075654  -0.0172874 -0.00116393 -0.075654  -0.0376221 0.00386947 -0.075654  0.0345854 -0.0204976 -0.075654  0.0118517 -0.0157477 -0.075654  -0.0021213 -0.016616 -0.075654  -0.0172745 -0.0167928 -0.075654  -0.0332884 -0.0126331 -0.075654  0.0371846 -0.0417733 -0.075654  0.0163995 -0.0361152 -0.075654  0.00335734 -0.0362216 -0.075654  -0.012728 -0.0329312 -0.075654  -0.024959 -0.0248721 -0.075654  
            </DataArray>
         </PointData> 
      </Piece>
   </UnstructuredGrid> 
</VTKFile>
