<?xml version="1.0"?>
<VTKFile type="UnstructuredGrid" version="0.1" byte_order="LittleEndian">
   <UnstructuredGrid>
      <Piece NumberOfPoints="25" NumberOfCells="0" > 
         <Points> 
            <DataArray type="Float64" Name="Position" NumberOfComponents="3" format="ascii"> 
               0  0  15  
               0.75  0  15  
               1.5  0  15  
               2.25  0  15  
               3  0  15  
               0  0.75  15  
               0.75  0.75  15  
               1.5  0.75  15  
               2.25  0.75  15  
               3  0.75  15  
               0  1.5  15  
               0.75  1.5  15  
               1.5  1.5  15  
               2.25  1.5  15  
               3  1.5  15  
               0  2.25  15  
               0.75  2.25  15  
               1.5  2.25  15  
               2.25  2.25  15  
               3  2.25  15  
               0  3  15  
               0.75  3  15  
               1.5  3  15  
               2.25  3  15  
               3  3  15  
            </DataArray>
         </Points> 

         <Cells>
            <DataArray type="Int32" Name="connectivity" NumberOfComponents="1" format="ascii">
               
            </DataArray> 
            <DataArray type="Int32" Name="offsets" NumberOfComponents="1" format="ascii">
               
            </DataArray>
            <DataArray type="UInt8"  Name="types" NumberOfComponents="1" format="ascii">
               
            </DataArray>
         </Cells>
         <PointData Scalars="Rank " Vectors="Displacement Velocity Traction ">
            <DataArray type="UInt32" Name="Rank" NumberOfComponents="1" format="ascii">
               0 0 0 0 0 0 0 0 0 0 0 0 0 0 0 0 0 0 0 0 0 0 0 0 0 
            </DataArray>
            <DataArray type="Float64" Name="Displacement" NumberOfComponents="3" format="ascii">
               5.10822e-08 6.36302e-08 -1.04462e-07  4.64692e-08 -9.18504e-09 -9.41895e-08  3.50153e-08 1.28819e-08 -8.48312e-08  2.32732e-08 2.15274e-09 -9.37544e-08  1.93223e-08 -9.26046e-09 -1.04085e-07  -7.61321e-09 5.62808e-08 -9.41906e-08  -7.22065e-09 -1.01085e-08 -6.96933e-08  -3.49545e-09 8.34831e-09 -4.71964e-08  3.48105e-09 1.7471e-09 -6.97037e-08  5.84259e-09 -1.55879e-08 -9.37861e-08  2.11059e-08 3.5391e-08 -8.48346e-08  1.42502e-08 -3.01468e-09 -4.71955e-08  -5.79945e-09 -3.34217e-09 -1.20227e-08  -2.53243e-08 7.40009e-09 -4.72858e-08  -3.50004e-08 -2.99598e-08 -8.49749e-08  3.15725e-09 2.14861e-08 -9.37514e-08  2.35194e-09 4.71859e-09 -6.97059e-08  8.14547e-09 -2.09309e-08 -4.729e-08  1.2344e-08 8.24013e-09 -6.97593e-08  8.89626e-09 -3.66797e-08 -9.42116e-08  -1.77322e-08 1.56505e-08 -1.04079e-07  -2.40407e-08 6.72385e-09 -9.37902e-08  -4.89533e-08 -2.57529e-08 -8.49838e-08  -6.53996e-08 2.56224e-09 -9.42189e-08  -6.26449e-08 -3.99218e-08 -1.04401e-07  
            </DataArray>
            <DataArray type="Float64" Name="Velocity" NumberOfComponents="3" format="ascii">
               2.00525e-07 2.57554e-07 -3.65453e-07  1.87067e-07 -3.24202e-08 -3.28946e-07  1.52559e-07 3.60756e-08 -2.9643e-07  1.14246e-07 1.08175e-08 -3.26534e-07  1.00315e-07 -4.51921e-08 -3.63891e-07  -2.64508e-08 2.29314e-07 -3.28954e-07  -2.34703e-08 -3.63618e-08 -2.46023e-07  -1.28497e-08 2.04272e-08 -1.73157e-07  8.08165e-09 9.29988e-09 -2.46246e-07  1.54032e-08 -6.82174e-08 -3.26626e-07  7.57743e-08 1.54282e-07 -2.96448e-07  5.01305e-08 -1.15195e-08 -1.73154e-07  -2.49646e-08 -1.60129e-08 -6.17437e-08  -9.45568e-08 2.81318e-08 -1.73626e-07  -1.29804e-07 -1.13641e-07 -2.97124e-07  1.787e-08 1.03526e-07 -3.26517e-07  1.46442e-08 1.57063e-08 -2.46259e-07  3.14579e-08 -7.49816e-08 -1.73645e-07  4.55416e-08 3.00915e-08 -2.46376e-07  3.43884e-08 -1.30259e-07 -3.29047e-07  -8.97714e-08 8.12758e-08 -3.63858e-07  -1.14279e-07 2.38332e-08 -3.26648e-07  -2.04038e-07 -9.02995e-08 -2.97174e-07  -2.64307e-07 1.10465e-08 -3.29084e-07  -2.56108e-07 -1.40515e-07 -3.6521e-07  
            </DataArray>
            <DataArray type="Float64" Name="Traction" NumberOfComponents="3" format="ascii">
               0 0 0  0 0 0  0 0 0  0 0 0  0 0 0  0 0 0  0 0 0  0 0 0  0 0 0  0 0 0  0 0 0  0 0 0  0 0 0  0 0 0  0 0 0  0 0 0  0 0 0  0 0 0  0 0 0  0 0 0  0 0 0  0 0 0  0 0 0  0 0 0  0 0 0  
            </DataArray>
         </PointData> 
      </Piece>
   </UnstructuredGrid> 
</VTKFile>
