<?xml version="1.0"?>
<VTKFile type="UnstructuredGrid" version="0.1" byte_order="LittleEndian">
   <UnstructuredGrid>
      <Piece NumberOfPoints="25" NumberOfCells="0" > 
         <Points> 
            <DataArray type="Float64" Name="Position" NumberOfComponents="3" format="ascii"> 
               0  0  20  
               0.75  0  20  
               1.5  0  20  
               2.25  0  20  
               3  0  20  
               0  0.75  20  
               0.75  0.75  20  
               1.5  0.75  20  
               2.25  0.75  20  
               3  0.75  20  
               0  1.5  20  
               0.75  1.5  20  
               1.5  1.5  20  
               2.25  1.5  20  
               3  1.5  20  
               0  2.25  20  
               0.75  2.25  20  
               1.5  2.25  20  
               2.25  2.25  20  
               3  2.25  20  
               0  3  20  
               0.75  3  20  
               1.5  3  20  
               2.25  3  20  
               3  3  20  
            </DataArray>
         </Points> 

         <Cells>
            <DataArray type="Int32" Name="connectivity" NumberOfComponents="1" format="ascii">
               
            </DataArray> 
            <DataArray type="Int32" Name="offsets" NumberOfComponents="1" format="ascii">
               
            </DataArray>
            <DataArray type="UInt8"  Name="types" NumberOfComponents="1" format="ascii">
               
            </DataArray>
         </Cells>
         <PointData Scalars="Rank " Vectors="Displacement Velocity Traction ">
            <DataArray type="UInt32" Name="Rank" NumberOfComponents="1" format="ascii">
               0 0 0 0 0 0 0 0 0 0 0 0 0 0 0 0 0 0 0 0 0 0 0 0 0 
            </DataArray>
            <DataArray type="Float64" Name="Displacement" NumberOfComponents="3" format="ascii">
               9.9935e-05 0.000103114 -0.00042185  -1.53123e-06 0.00017856 -0.000408726  -6.13076e-05 0.000211352 -0.000384104  -5.14222e-05 0.000149046 -0.000404907  -0.000115556 0.000188479 -0.00041772  0.000177291 1.6897e-06 -0.000409205  5.42937e-05 5.54029e-05 -0.000356458  -1.78274e-05 8.80211e-05 -0.000318168  -5.2082e-05 5.44461e-05 -0.000369351  -0.000145565 9.53496e-05 -0.000394738  0.000211924 -5.84454e-05 -0.000385825  8.82274e-05 -1.53524e-05 -0.000318724  1.42175e-06 2.91125e-06 -0.00025297  -7.88401e-05 1.4622e-05 -0.000319844  -0.000200937 5.89381e-05 -0.000380632  0.000151217 -5.17421e-05 -0.000407156  5.54537e-05 -5.08308e-05 -0.000369763  1.40404e-05 -7.8117e-05 -0.000319963  -4.90458e-05 -4.90855e-05 -0.000359089  -0.000169228 -3.1854e-06 -0.000404286  0.000190495 -0.000117789 -0.000421982  9.70045e-05 -0.000145722 -0.000396076  5.87048e-05 -0.000201113 -0.000381852  -5.07612e-06 -0.000170308 -0.000405443  -0.000103762 -0.000102011 -0.000414979  
            </DataArray>
            <DataArray type="Float64" Name="Velocity" NumberOfComponents="3" format="ascii">
               0.000104056 0.00010976 -0.000479983  1.83328e-07 0.000186013 -0.0004797  -6.8509e-05 0.000218681 -0.000459868  -6.18348e-05 0.000157168 -0.000480714  -0.000121808 0.00020733 -0.000482919  0.000180108 5.41984e-06 -0.000477131  5.49868e-05 6.03325e-05 -0.000438125  -2.58883e-05 9.5711e-05 -0.000406167  -6.60186e-05 6.40889e-05 -0.00045584  -0.000157812 0.000110964 -0.000469284  0.000213199 -6.29039e-05 -0.000458202  9.05989e-05 -2.10048e-05 -0.000406673  -5.54627e-06 -8.31296e-07 -0.000346214  -9.25758e-05 1.51722e-05 -0.00040773  -0.0002129 6.00958e-05 -0.000456961  0.000153335 -5.59008e-05 -0.000480426  5.98842e-05 -6.12412e-05 -0.000456967  1.06357e-05 -8.84765e-05 -0.00040821  -5.99962e-05 -5.5885e-05 -0.000441704  -0.000181377 -1.16863e-05 -0.00047704  0.000204275 -0.000116522 -0.000481192  0.0001074 -0.000152754 -0.000468697  5.644e-05 -0.000208731 -0.000456008  -1.61789e-05 -0.000177943 -0.000475264  -0.000117231 -0.000112094 -0.00047647  
            </DataArray>
            <DataArray type="Float64" Name="Traction" NumberOfComponents="3" format="ascii">
               -0.00078985 -0.000759202 -0.00554841  -0.000271368 -0.00129892 -0.00554841  0.000315511 -0.00152324 -0.00554841  0.000262794 -0.00100692 -0.00554841  0.000601161 -0.00111749 -0.00554841  -0.00132575 -0.00023728 -0.00554841  -0.000563758 -0.000535841 -0.00554841  0.000404226 -0.000838679 -0.00554841  0.000479269 -0.000548389 -0.00554841  0.000873189 -0.000539265 -0.00554841  -0.00156121 0.000343722 -0.00554841  -0.000871122 0.000420306 -0.00554841  0.000314818 0.000333017 -0.00554841  0.000746434 8.71696e-05 -0.00554841  0.00139289 -6.35116e-05 -0.00554841  -0.00104384 0.000314092 -0.00554841  -0.00057268 0.000511069 -0.00554841  7.3888e-05 0.000775981 -0.00554841  0.000471763 0.000499423 -0.00554841  0.00117764 0.000236724 -0.00554841  -0.00115847 0.000670015 -0.00554841  -0.000565502 0.000920868 -0.00554841  -7.32877e-05 0.00143583 -0.00554841  0.000225904 0.00121999 -0.00554841  0.000708469 0.000727372 -0.00554841  
            </DataArray>
         </PointData> 
      </Piece>
   </UnstructuredGrid> 
</VTKFile>
