<?xml version="1.0"?>
<VTKFile type="UnstructuredGrid" version="0.1" byte_order="LittleEndian">
   <UnstructuredGrid>
      <Piece NumberOfPoints="25" NumberOfCells="0" > 
         <Points> 
            <DataArray type="Float64" Name="Position" NumberOfComponents="3" format="ascii"> 
               0  0  15  
               0.75  0  15  
               1.5  0  15  
               2.25  0  15  
               3  0  15  
               0  0.75  15  
               0.75  0.75  15  
               1.5  0.75  15  
               2.25  0.75  15  
               3  0.75  15  
               0  1.5  15  
               0.75  1.5  15  
               1.5  1.5  15  
               2.25  1.5  15  
               3  1.5  15  
               0  2.25  15  
               0.75  2.25  15  
               1.5  2.25  15  
               2.25  2.25  15  
               3  2.25  15  
               0  3  15  
               0.75  3  15  
               1.5  3  15  
               2.25  3  15  
               3  3  15  
            </DataArray>
         </Points> 

         <Cells>
            <DataArray type="Int32" Name="connectivity" NumberOfComponents="1" format="ascii">
               
            </DataArray> 
            <DataArray type="Int32" Name="offsets" NumberOfComponents="1" format="ascii">
               
            </DataArray>
            <DataArray type="UInt8"  Name="types" NumberOfComponents="1" format="ascii">
               
            </DataArray>
         </Cells>
         <PointData Scalars="Rank " Vectors="Displacement Velocity Traction ">
            <DataArray type="UInt32" Name="Rank" NumberOfComponents="1" format="ascii">
               0 0 0 0 0 0 0 0 0 0 0 0 0 0 0 0 0 0 0 0 0 0 0 0 0 
            </DataArray>
            <DataArray type="Float64" Name="Displacement" NumberOfComponents="3" format="ascii">
               0.00151965 0.00166238 -0.0023141  0.00140464 0.000157392 -0.00231689  0.00102602 -0.000341079 -0.00223605  0.000598095 -0.000350171 -0.00233105  0.000432152 -0.00121447 -0.00233653  -6.58705e-05 0.00154715 -0.00230718  -8.0617e-05 0.000138937 -0.00213491  -0.000356105 -0.00020925 -0.00199159  -0.000615845 -0.000348349 -0.00221939  -0.000601346 -0.00139984 -0.0022827  -0.000554039 0.00117723 -0.00222631  -0.000421905 -0.000149936 -0.00199187  -0.000596536 -0.000393461 -0.00171511  -0.000764554 -0.000634435 -0.00200139  -0.000629501 -0.00184088 -0.00223108  -0.000590613 0.000755782 -0.00232368  -0.00058289 -0.000421535 -0.00222113  -0.000853997 -0.000567725 -0.00200185  -0.00113113 -0.000925449 -0.00215398  -0.00114849 -0.00220236 -0.00231412  -0.00148298 0.000589277 -0.00231724  -0.00165937 -0.000414101 -0.00227513  -0.00208144 -0.000440675 -0.00222203  -0.00242547 -0.000952409 -0.00230419  -0.0025255 -0.0023092 -0.00230396  
            </DataArray>
            <DataArray type="Float64" Name="Velocity" NumberOfComponents="3" format="ascii">
               0.000471114 0.000625807 -0.00222695  0.000410119 2.5541e-05 -0.0022343  0.000257402 -0.000218485 -0.00217052  9.91175e-05 -0.000205859 -0.00225707  2.99488e-05 -0.000525643 -0.00224957  -0.00012581 0.000563492 -0.00222821  -0.000151709 -2.39705e-06 -0.00208013  -0.000292483 -0.000174242 -0.00195561  -0.000420147 -0.000217011 -0.00216273  -0.000423844 -0.000621414 -0.00221429  -0.000352645 0.000407707 -0.00216062  -0.000306986 -0.0001459 -0.00195414  -0.000380605 -0.000247937 -0.00170683  -0.000458999 -0.000339833 -0.0019674  -0.000413468 -0.00081844 -0.00217021  -0.000346169 0.000246063 -0.0022462  -0.000357269 -0.000272699 -0.00216156  -0.000484299 -0.000321703 -0.00196661  -0.000623133 -0.000470459 -0.00210186  -0.000650785 -0.000984326 -0.00223803  -0.000692331 0.000175078 -0.00222563  -0.000787772 -0.000273598 -0.00220469  -0.000987147 -0.000269719 -0.00216035  -0.00115857 -0.000491746 -0.00222959  -0.00122413 -0.00104608 -0.00222053  
            </DataArray>
            <DataArray type="Float64" Name="Traction" NumberOfComponents="3" format="ascii">
               0.0309347 0.0320735 -0.0833248  0.00737266 0.0373523 -0.0833248  -0.0082989 0.0387259 -0.0833248  -0.0244714 0.0386538 -0.0833248  -0.0466028 0.0413402 -0.0833248  0.0379196 0.00884328 -0.0833248  0.0137146 0.0150143 -0.0833248  -0.00125025 0.015436 -0.0833248  -0.0189551 0.0152139 -0.0833248  -0.0416476 0.0200693 -0.0833248  0.0392652 -0.00721727 -0.0833248  0.013634 -0.000146961 -0.0833248  -0.0015105 -0.000285544 -0.0833248  -0.0196417 -0.00107846 -0.0833248  -0.0421832 0.00455109 -0.0833248  0.0389489 -0.0238373 -0.0833248  0.0139814 -0.018234 -0.0833248  -0.00206453 -0.0188636 -0.0833248  -0.0196257 -0.0190256 -0.0833248  -0.0377187 -0.0142511 -0.0833248  0.0418076 -0.0470408 -0.0833248  0.0192126 -0.0408504 -0.0833248  0.00402703 -0.0407351 -0.0833248  -0.0144784 -0.0372428 -0.0833248  -0.0288686 -0.028635 -0.0833248  
            </DataArray>
         </PointData> 
      </Piece>
   </UnstructuredGrid> 
</VTKFile>
