<?xml version="1.0"?>
<VTKFile type="UnstructuredGrid" version="0.1" byte_order="LittleEndian">
   <UnstructuredGrid>
      <Piece NumberOfPoints="25" NumberOfCells="0" > 
         <Points> 
            <DataArray type="Float64" Name="Position" NumberOfComponents="3" format="ascii"> 
               0  0  15  
               0.75  0  15  
               1.5  0  15  
               2.25  0  15  
               3  0  15  
               0  0.75  15  
               0.75  0.75  15  
               1.5  0.75  15  
               2.25  0.75  15  
               3  0.75  15  
               0  1.5  15  
               0.75  1.5  15  
               1.5  1.5  15  
               2.25  1.5  15  
               3  1.5  15  
               0  2.25  15  
               0.75  2.25  15  
               1.5  2.25  15  
               2.25  2.25  15  
               3  2.25  15  
               0  3  15  
               0.75  3  15  
               1.5  3  15  
               2.25  3  15  
               3  3  15  
            </DataArray>
         </Points> 

         <Cells>
            <DataArray type="Int32" Name="connectivity" NumberOfComponents="1" format="ascii">
               
            </DataArray> 
            <DataArray type="Int32" Name="offsets" NumberOfComponents="1" format="ascii">
               
            </DataArray>
            <DataArray type="UInt8"  Name="types" NumberOfComponents="1" format="ascii">
               
            </DataArray>
         </Cells>
         <PointData Scalars="Rank " Vectors="Displacement Velocity Traction ">
            <DataArray type="UInt32" Name="Rank" NumberOfComponents="1" format="ascii">
               0 0 0 0 0 0 0 0 0 0 0 0 0 0 0 0 0 0 0 0 0 0 0 0 0 
            </DataArray>
            <DataArray type="Float64" Name="Displacement" NumberOfComponents="3" format="ascii">
               0.00183049 0.00209258 -0.00494129  0.00166086 0.000183421 -0.00491901  0.00117807 -0.000488977 -0.00474648  0.00065335 -0.000507517 -0.00495278  0.000436242 -0.00157406 -0.0049729  -0.000151784 0.00192165 -0.00490806  -0.000202366 0.000127597 -0.00451494  -0.000585624 -0.000344774 -0.0041916  -0.000937783 -0.000527693 -0.00468769  -0.000935219 -0.0018418 -0.00485517  -0.000803525 0.001444 -0.00473137  -0.000657233 -0.000271348 -0.00419017  -0.000890757 -0.000588694 -0.00357874  -0.00112273 -0.000902537 -0.00421568  -0.000971118 -0.00242811 -0.0047373  -0.000853173 0.000922111 -0.00493752  -0.000867015 -0.000635523 -0.00468705  -0.00122942 -0.000824695 -0.00421488  -0.00161046 -0.00129212 -0.00455919  -0.00166299 -0.00291417 -0.00491556  -0.00196171 0.000703049 -0.00493809  -0.00222065 -0.00063808 -0.00484094  -0.00279045 -0.00067667 -0.00472244  -0.00326348 -0.00134975 -0.00490207  -0.00342344 -0.00307813 -0.00491493  
            </DataArray>
            <DataArray type="Float64" Name="Velocity" NumberOfComponents="3" format="ascii">
               0.000315278 0.000474197 -0.00540183  0.000225554 5.82686e-05 -0.00528395  0.000113307 -0.000141813 -0.00505867  3.49482e-05 -0.000196303 -0.00531025  -3.04598e-05 -0.000381536 -0.00539646  -8.42729e-05 0.000382942 -0.00528826  -0.000167607 -2.69091e-05 -0.0047382  -0.000313438 -0.000173182 -0.00429207  -0.000428513 -0.000256317 -0.00489915  -0.000466905 -0.000510405 -0.00521411  -0.00027395 0.000264609 -0.00505618  -0.000302395 -0.000175593 -0.00428906  -0.00038953 -0.000261675 -0.00350062  -0.000486837 -0.000365492 -0.00432023  -0.000506881 -0.000691658 -0.00504484  -0.000331598 0.000180232 -0.00530176  -0.00039076 -0.000291627 -0.00489386  -0.000503011 -0.000357305 -0.00431768  -0.000639752 -0.000495975 -0.00478676  -0.000718424 -0.000852396 -0.00527484  -0.000528444 0.000113037 -0.00538319  -0.000658342 -0.000327561 -0.0052076  -0.000844405 -0.000371855 -0.00504112  -0.00101171 -0.000569 -0.00527549  -0.00111242 -0.000949555 -0.00535776  
            </DataArray>
            <DataArray type="Float64" Name="Traction" NumberOfComponents="3" format="ascii">
               0.0391898 0.0404072 -0.0954288  0.0107015 0.045954 -0.0954288  -0.0100651 0.0469784 -0.0954288  -0.0326259 0.047541 -0.0954288  -0.0585622 0.0507477 -0.0954288  0.0463812 0.0122345 -0.0954288  0.0180944 0.0193726 -0.0954288  -0.00020191 0.0192409 -0.0954288  -0.0246092 0.0198002 -0.0954288  -0.0518036 0.0262799 -0.0954288  0.0475549 -0.00889442 -0.0954288  0.0175474 0.00087885 -0.0954288  -4.21326e-05 0.00117989 -0.0954288  -0.0241607 -0.000236101 -0.0954288  -0.0508176 0.00651074 -0.0954288  0.048059 -0.0319708 -0.0954288  0.0188212 -0.0238622 -0.0954288  -0.00117468 -0.0232633 -0.0954288  -0.0245137 -0.0237304 -0.0954288  -0.0466893 -0.0179241 -0.0954288  0.0516137 -0.0589435 -0.0954288  0.0258207 -0.0510201 -0.0954288  0.00602368 -0.0493836 -0.0954288  -0.0184387 -0.0459994 -0.0954288  -0.0376978 -0.0371128 -0.0954288  
            </DataArray>
         </PointData> 
      </Piece>
   </UnstructuredGrid> 
</VTKFile>
