<?xml version="1.0"?>
<VTKFile type="UnstructuredGrid" version="0.1" byte_order="LittleEndian">
   <UnstructuredGrid>
      <Piece NumberOfPoints="25" NumberOfCells="0" > 
         <Points> 
            <DataArray type="Float64" Name="Position" NumberOfComponents="3" format="ascii"> 
               0  0  15  
               0.75  0  15  
               1.5  0  15  
               2.25  0  15  
               3  0  15  
               0  0.75  15  
               0.75  0.75  15  
               1.5  0.75  15  
               2.25  0.75  15  
               3  0.75  15  
               0  1.5  15  
               0.75  1.5  15  
               1.5  1.5  15  
               2.25  1.5  15  
               3  1.5  15  
               0  2.25  15  
               0.75  2.25  15  
               1.5  2.25  15  
               2.25  2.25  15  
               3  2.25  15  
               0  3  15  
               0.75  3  15  
               1.5  3  15  
               2.25  3  15  
               3  3  15  
            </DataArray>
         </Points> 

         <Cells>
            <DataArray type="Int32" Name="connectivity" NumberOfComponents="1" format="ascii">
               
            </DataArray> 
            <DataArray type="Int32" Name="offsets" NumberOfComponents="1" format="ascii">
               
            </DataArray>
            <DataArray type="UInt8"  Name="types" NumberOfComponents="1" format="ascii">
               
            </DataArray>
         </Cells>
         <PointData Scalars="Rank " Vectors="Displacement Velocity Traction ">
            <DataArray type="UInt32" Name="Rank" NumberOfComponents="1" format="ascii">
               0 0 0 0 0 0 0 0 0 0 0 0 0 0 0 0 0 0 0 0 0 0 0 0 0 
            </DataArray>
            <DataArray type="Float64" Name="Displacement" NumberOfComponents="3" format="ascii">
               1.38329e-05 6.3234e-06 -4.35947e-06  1.37851e-05 -4.11973e-07 -4.62445e-06  1.22516e-05 -1.45734e-06 -4.66633e-06  1.05022e-05 1.0813e-06 -4.73104e-06  1.01193e-05 1.30845e-06 -4.3396e-06  1.86593e-06 5.88543e-06 -4.61208e-06  2.07947e-06 -2.14103e-07 -4.69869e-06  1.8384e-06 -9.91144e-07 -4.81268e-06  1.26553e-06 1.24513e-06 -4.99171e-06  1.21025e-06 6.16559e-07 -4.50241e-06  3.26241e-06 5.22233e-06 -4.65005e-06  2.63584e-06 1.52575e-07 -4.81639e-06  4.33957e-07 -1.48837e-06 -4.74854e-06  -1.97478e-06 1.47918e-06 -4.84742e-06  -3.05223e-06 -3.61009e-07 -4.59606e-06  2.98762e-06 4.49701e-06 -4.70489e-06  2.73678e-06 4.04e-07 -4.99292e-06  2.41396e-06 -2.41093e-06 -4.84217e-06  2.51019e-06 1.65323e-06 -4.75616e-06  2.17971e-06 5.37436e-07 -4.58879e-06  -4.08931e-06 4.08176e-06 -4.33024e-06  -4.48615e-06 5.31269e-07 -4.52443e-06  -5.74701e-06 -2.88558e-06 -4.61671e-06  -5.24295e-06 1.07212e-06 -4.6053e-06  -4.09842e-06 1.41055e-06 -4.30605e-06  
            </DataArray>
            <DataArray type="Float64" Name="Velocity" NumberOfComponents="3" format="ascii">
               1.62249e-05 3.71074e-06 1.22284e-07  1.63891e-05 -4.78674e-07 -5.63068e-07  1.51363e-05 -2.09315e-07 -1.07381e-06  1.34672e-05 2.15568e-06 -9.03444e-07  1.31673e-05 2.45789e-06 1.28502e-07  4.11584e-06 3.81028e-06 -5.26169e-07  4.24765e-06 -1.56253e-07 -1.61042e-06  4.31659e-06 -5.32655e-08 -2.31117e-06  4.13616e-06 1.9816e-06 -1.87201e-06  4.30503e-06 1.79387e-06 -7.10429e-07  4.8959e-06 4.09373e-06 -1.04481e-06  4.04285e-06 3.16637e-07 -2.32004e-06  2.11319e-06 -1.03593e-06 -3.08788e-06  2.63022e-07 1.53632e-06 -2.3295e-06  -4.26114e-07 7.04429e-07 -9.87449e-07  4.2892e-06 3.93598e-06 -8.70001e-07  3.99697e-06 4.03086e-07 -1.873e-06  3.88909e-06 -2.19317e-06 -2.33144e-06  4.34329e-06 1.44446e-06 -1.64761e-06  4.18826e-06 1.60342e-06 -5.35056e-07  -1.20951e-06 3.81929e-06 1.37198e-07  -1.24805e-06 2.3375e-07 -7.33976e-07  -1.41568e-06 -3.17132e-06 -1.00848e-06  1.56543e-07 7.77636e-07 -5.37239e-07  1.50373e-06 2.76074e-06 1.69382e-07  
            </DataArray>
            <DataArray type="Float64" Name="Traction" NumberOfComponents="3" format="ascii">
               0.000246071 0.000255586 0.000140877  -0.000108875 0.000142171 0.000140877  -2.54142e-05 4.69311e-05 0.000140877  4.64978e-05 0.000172318 0.000140877  -0.000299007 0.000318086 0.000140877  0.000310202 -8.67424e-05 0.000140877  3.85736e-05 -7.53102e-06 0.000140877  1.46919e-05 5.93926e-05 0.000140877  2.6927e-05 2.28331e-05 0.000140877  -0.000349634 1.92655e-05 0.000140877  0.000325196 -1.03927e-05 0.000140877  8.81175e-05 7.57085e-06 0.000140877  2.19345e-05 9.49451e-06 0.000140877  2.02862e-05 1.00044e-05 0.000140877  -0.000431724 -3.37233e-06 0.000140877  0.000344927 5.26602e-05 0.000140877  3.60959e-05 1.92447e-05 0.000140877  1.86381e-05 -2.63102e-05 0.000140877  3.70614e-05 6.31055e-07 0.000140877  -0.000101064 -4.65061e-05 0.000140877  0.000371833 -0.000322185 0.000140877  1.20622e-05 -0.000275924 0.000140877  3.60738e-05 -0.000260334 0.000140877  3.50645e-05 -2.01487e-05 0.000140877  0.000225061 0.00016861 0.000140877  
            </DataArray>
         </PointData> 
      </Piece>
   </UnstructuredGrid> 
</VTKFile>
