<?xml version="1.0"?>
<VTKFile type="UnstructuredGrid" version="0.1" byte_order="LittleEndian">
   <UnstructuredGrid>
      <Piece NumberOfPoints="25" NumberOfCells="0" > 
         <Points> 
            <DataArray type="Float64" Name="Position" NumberOfComponents="3" format="ascii"> 
               0  0  20  
               0.75  0  20  
               1.5  0  20  
               2.25  0  20  
               3  0  20  
               0  0.75  20  
               0.75  0.75  20  
               1.5  0.75  20  
               2.25  0.75  20  
               3  0.75  20  
               0  1.5  20  
               0.75  1.5  20  
               1.5  1.5  20  
               2.25  1.5  20  
               3  1.5  20  
               0  2.25  20  
               0.75  2.25  20  
               1.5  2.25  20  
               2.25  2.25  20  
               3  2.25  20  
               0  3  20  
               0.75  3  20  
               1.5  3  20  
               2.25  3  20  
               3  3  20  
            </DataArray>
         </Points> 

         <Cells>
            <DataArray type="Int32" Name="connectivity" NumberOfComponents="1" format="ascii">
               
            </DataArray> 
            <DataArray type="Int32" Name="offsets" NumberOfComponents="1" format="ascii">
               
            </DataArray>
            <DataArray type="UInt8"  Name="types" NumberOfComponents="1" format="ascii">
               
            </DataArray>
         </Cells>
         <PointData Scalars="Rank " Vectors="Displacement Velocity Traction ">
            <DataArray type="UInt32" Name="Rank" NumberOfComponents="1" format="ascii">
               0 0 0 0 0 0 0 0 0 0 0 0 0 0 0 0 0 0 0 0 0 0 0 0 0 
            </DataArray>
            <DataArray type="Float64" Name="Displacement" NumberOfComponents="3" format="ascii">
               0 0 0  0 0 0  0 0 0  0 0 0  0 0 0  0 0 0  0 0 0  0 0 0  0 0 0  0 0 0  0 0 0  0 0 0  0 0 0  0 0 0  0 0 0  0 0 0  0 0 0  0 0 0  0 0 0  0 0 0  0 0 0  0 0 0  0 0 0  0 0 0  0 0 0  
            </DataArray>
            <DataArray type="Float64" Name="Velocity" NumberOfComponents="3" format="ascii">
               0 0 0  0 0 0  0 0 0  0 0 0  0 0 0  0 0 0  0 0 0  0 0 0  0 0 0  0 0 0  0 0 0  0 0 0  0 0 0  0 0 0  0 0 0  0 0 0  0 0 0  0 0 0  0 0 0  0 0 0  0 0 0  0 0 0  0 0 0  0 0 0  0 0 0  
            </DataArray>
            <DataArray type="Float64" Name="Traction" NumberOfComponents="3" format="ascii">
               -7.25643e-09 -7.29592e-09 6.70229e-06  -2.05539e-09 -1.24098e-08 6.70229e-06  1.29107e-09 -1.83332e-08 6.70229e-06  1.5835e-09 -1.24536e-08 6.70229e-06  6.7457e-09 -6.78923e-09 6.70229e-06  -1.24322e-08 -2.12092e-09 6.70229e-06  -4.98234e-09 -4.96474e-09 6.70229e-06  4.10713e-09 -8.67985e-09 6.70229e-06  5.00195e-09 -5.05955e-09 6.70229e-06  1.238e-08 -1.63664e-09 6.70229e-06  -1.83802e-08 1.30331e-09 6.70229e-06  -8.7053e-09 4.09496e-09 6.70229e-06  6.59864e-09 6.58791e-09 6.70229e-06  8.78723e-09 3.94063e-09 6.70229e-06  1.85313e-08 1.75245e-09 6.70229e-06  -1.24738e-08 1.58151e-09 6.70229e-06  -5.04813e-09 5.00039e-09 6.70229e-06  3.93826e-09 8.76338e-09 6.70229e-06  4.94192e-09 4.98102e-09 6.70229e-06  1.24766e-08 2.05188e-09 6.70229e-06  -6.74652e-09 6.75547e-09 6.70229e-06  -1.6213e-09 1.23951e-08 6.70229e-06  1.85516e-09 1.84314e-08 6.70229e-06  2.22199e-09 1.25208e-08 6.70229e-06  7.21159e-09 7.15872e-09 6.70229e-06  
            </DataArray>
         </PointData> 
      </Piece>
   </UnstructuredGrid> 
</VTKFile>
