<?xml version="1.0"?>
<VTKFile type="UnstructuredGrid" version="0.1" byte_order="LittleEndian">
   <UnstructuredGrid>
      <Piece NumberOfPoints="25" NumberOfCells="0" > 
         <Points> 
            <DataArray type="Float64" Name="Position" NumberOfComponents="3" format="ascii"> 
               0  0  15  
               0.75  0  15  
               1.5  0  15  
               2.25  0  15  
               3  0  15  
               0  0.75  15  
               0.75  0.75  15  
               1.5  0.75  15  
               2.25  0.75  15  
               3  0.75  15  
               0  1.5  15  
               0.75  1.5  15  
               1.5  1.5  15  
               2.25  1.5  15  
               3  1.5  15  
               0  2.25  15  
               0.75  2.25  15  
               1.5  2.25  15  
               2.25  2.25  15  
               3  2.25  15  
               0  3  15  
               0.75  3  15  
               1.5  3  15  
               2.25  3  15  
               3  3  15  
            </DataArray>
         </Points> 

         <Cells>
            <DataArray type="Int32" Name="connectivity" NumberOfComponents="1" format="ascii">
               
            </DataArray> 
            <DataArray type="Int32" Name="offsets" NumberOfComponents="1" format="ascii">
               
            </DataArray>
            <DataArray type="UInt8"  Name="types" NumberOfComponents="1" format="ascii">
               
            </DataArray>
         </Cells>
         <PointData Scalars="Rank " Vectors="Displacement Velocity Traction ">
            <DataArray type="UInt32" Name="Rank" NumberOfComponents="1" format="ascii">
               0 0 0 0 0 0 0 0 0 0 0 0 0 0 0 0 0 0 0 0 0 0 0 0 0 
            </DataArray>
            <DataArray type="Float64" Name="Displacement" NumberOfComponents="3" format="ascii">
               0.000129384 6.26033e-05 2.06126e-06  0.00012766 1.34552e-05 1.65664e-06  0.000116678 1.4203e-05 1.42429e-06  0.000103913 1.17873e-05 1.38689e-06  0.000100608 -1.16772e-05 1.99432e-06  4.78705e-05 6.21938e-05 1.69373e-06  4.94282e-05 1.51413e-05 7.88941e-07  5.15944e-05 1.29313e-05 9.21861e-07  5.5043e-05 8.4759e-06 1.09145e-06  5.84275e-05 -1.57446e-05 1.01314e-06  4.0201e-05 5.56731e-05 1.57535e-06  3.95411e-05 1.39046e-05 9.59368e-07  3.08092e-05 4.94728e-07 6.67931e-07  2.44133e-05 -4.12488e-07 8.92675e-07  2.51336e-05 -2.5769e-05 1.04501e-06  2.47471e-05 4.62965e-05 1.57928e-06  2.56462e-05 1.02251e-05 1.09517e-06  2.67384e-05 -1.07003e-05 8.94031e-07  2.96427e-05 -6.00562e-06 8.75511e-07  3.02509e-05 -2.78998e-05 1.20225e-06  -6.81352e-07 4.33841e-05 2.29873e-06  -1.59587e-06 7.6247e-06 1.08976e-06  -4.1623e-06 -1.65376e-05 1.26924e-06  5.77776e-07 -1.00476e-05 1.50862e-06  5.75135e-06 -2.43312e-05 1.38992e-06  
            </DataArray>
            <DataArray type="Float64" Name="Velocity" NumberOfComponents="3" format="ascii">
               0.000106321 7.05238e-05 -4.42565e-06  0.000103278 2.03691e-05 -2.40318e-06  9.16586e-05 1.49336e-05 -9.28773e-07  7.86646e-05 3.41723e-06 -1.52006e-06  7.43963e-05 -2.81755e-05 -4.27624e-06  4.22188e-05 6.88447e-05 -2.64458e-06  4.32825e-05 2.12266e-05 7.88823e-07  4.26626e-05 1.49789e-05 3.3254e-06  4.39046e-05 1.08177e-06 1.63436e-06  4.67881e-05 -3.19588e-05 -2.08319e-06  2.62234e-05 5.873e-05 -1.02762e-06  2.8845e-05 1.63601e-05 3.38592e-06  2.37725e-05 3.49699e-06 6.2615e-06  2.10157e-05 -9.17218e-06 3.28047e-06  2.50503e-05 -4.29075e-05 -1.44907e-06  9.63503e-06 4.64568e-05 -1.47813e-06  1.14839e-05 1.01357e-05 1.69569e-06  1.08188e-05 -6.55609e-06 3.35135e-06  1.06641e-05 -1.76966e-05 9.23293e-07  1.20408e-05 -5.08909e-05 -2.83254e-06  -8.2012e-06 4.25611e-05 -4.16916e-06  -1.00556e-05 7.85159e-06 -2.03276e-06  -1.46641e-05 -9.24009e-06 -1.24628e-06  -1.6065e-05 -2.06651e-05 -2.67551e-06  -1.50244e-05 -5.15076e-05 -4.94711e-06  
            </DataArray>
            <DataArray type="Float64" Name="Traction" NumberOfComponents="3" format="ascii">
               0 0 0  0 0 0  0 0 0  0 0 0  0 0 0  0 0 0  0 0 0  0 0 0  0 0 0  0 0 0  0 0 0  0 0 0  0 0 0  0 0 0  0 0 0  0 0 0  0 0 0  0 0 0  0 0 0  0 0 0  0 0 0  0 0 0  0 0 0  0 0 0  0 0 0  
            </DataArray>
         </PointData> 
      </Piece>
   </UnstructuredGrid> 
</VTKFile>
