<?xml version="1.0"?>
<VTKFile type="UnstructuredGrid" version="0.1" byte_order="LittleEndian">
   <UnstructuredGrid>
      <Piece NumberOfPoints="25" NumberOfCells="0" > 
         <Points> 
            <DataArray type="Float64" Name="Position" NumberOfComponents="3" format="ascii"> 
               0  0  15  
               0.75  0  15  
               1.5  0  15  
               2.25  0  15  
               3  0  15  
               0  0.75  15  
               0.75  0.75  15  
               1.5  0.75  15  
               2.25  0.75  15  
               3  0.75  15  
               0  1.5  15  
               0.75  1.5  15  
               1.5  1.5  15  
               2.25  1.5  15  
               3  1.5  15  
               0  2.25  15  
               0.75  2.25  15  
               1.5  2.25  15  
               2.25  2.25  15  
               3  2.25  15  
               0  3  15  
               0.75  3  15  
               1.5  3  15  
               2.25  3  15  
               3  3  15  
            </DataArray>
         </Points> 

         <Cells>
            <DataArray type="Int32" Name="connectivity" NumberOfComponents="1" format="ascii">
               
            </DataArray> 
            <DataArray type="Int32" Name="offsets" NumberOfComponents="1" format="ascii">
               
            </DataArray>
            <DataArray type="UInt8"  Name="types" NumberOfComponents="1" format="ascii">
               
            </DataArray>
         </Cells>
         <PointData Scalars="Rank " Vectors="Displacement Velocity Traction ">
            <DataArray type="UInt32" Name="Rank" NumberOfComponents="1" format="ascii">
               0 0 0 0 0 0 0 0 0 0 0 0 0 0 0 0 0 0 0 0 0 0 0 0 0 
            </DataArray>
            <DataArray type="Float64" Name="Displacement" NumberOfComponents="3" format="ascii">
               0.000426449 0.000322955 -9.38491e-05  0.000411577 6.97888e-05 -8.59956e-05  0.000350116 2.12602e-05 -7.79399e-05  0.000278434 -7.47326e-06 -8.33884e-05  0.000253293 -0.000159306 -9.12484e-05  0.00011762 0.00031031 -8.70747e-05  0.000120824 7.19843e-05 -6.8308e-05  9.96336e-05 3.30689e-05 -5.54752e-05  8.28658e-05 -1.16577e-05 -6.96169e-05  9.14324e-05 -0.000182686 -8.17592e-05  4.42705e-05 0.000255957 -7.92561e-05  5.9566e-05 4.02636e-05 -5.55525e-05  2.83837e-05 -1.19997e-05 -3.58906e-05  4.7839e-06 -5.94486e-05 -5.60072e-05  2.48008e-05 -0.000245271 -7.76654e-05  -3.56576e-06 0.000190227 -8.43673e-05  1.69441e-06 5.95028e-06 -6.93995e-05  -2.11796e-05 -5.28837e-05 -5.58417e-05  -4.08567e-05 -0.000103619 -6.86223e-05  -3.70314e-05 -0.000291688 -8.51547e-05  -0.00012981 0.000166818 -9.33908e-05  -0.000146436 1.11458e-06 -8.24304e-05  -0.000189426 -5.13009e-05 -7.82218e-05  -0.000214884 -0.000114371 -8.59382e-05  -0.000215262 -0.000299517 -9.20526e-05  
            </DataArray>
            <DataArray type="Float64" Name="Velocity" NumberOfComponents="3" format="ascii">
               0.000246053 0.000254485 -0.000148471  0.000231785 3.9754e-05 -0.000141599  0.000177573 -2.25582e-05 -0.000131946  0.000113741 -3.65951e-05 -0.000139611  8.93823e-05 -0.000169575 -0.000145126  1.91509e-05 0.000239601 -0.000142328  1.95294e-05 3.92106e-05 -0.000120955  -1.47192e-05 -3.30351e-06 -0.000106553  -4.75019e-05 -3.4251e-05 -0.000125597  -4.47874e-05 -0.000192106 -0.000135445  -4.75407e-05 0.000187117 -0.000133356  -2.84294e-05 2.18488e-06 -0.000106832  -5.32765e-05 -3.11295e-05 -8.21109e-05  -7.51058e-05 -7.38797e-05 -0.00010718  -5.43514e-05 -0.000251283 -0.000129948  -6.20621e-05 0.000125404 -0.000141174  -5.90186e-05 -3.30508e-05 -0.00012564  -9.44066e-05 -5.66856e-05 -0.000107191  -0.00012902 -0.000114953 -0.000121879  -0.000127746 -0.000301652 -0.000138965  -0.00018481 0.000101825 -0.000148326  -0.00020575 -3.2055e-05 -0.000136445  -0.000259689 -3.99739e-05 -0.000131143  -0.000303097 -0.000118746 -0.000140352  -0.000313569 -0.000316064 -0.000144372  
            </DataArray>
            <DataArray type="Float64" Name="Traction" NumberOfComponents="3" format="ascii">
               0 0 0  0 0 0  0 0 0  0 0 0  0 0 0  0 0 0  0 0 0  0 0 0  0 0 0  0 0 0  0 0 0  0 0 0  0 0 0  0 0 0  0 0 0  0 0 0  0 0 0  0 0 0  0 0 0  0 0 0  0 0 0  0 0 0  0 0 0  0 0 0  0 0 0  
            </DataArray>
         </PointData> 
      </Piece>
   </UnstructuredGrid> 
</VTKFile>
