<?xml version="1.0"?>
<VTKFile type="UnstructuredGrid" version="0.1" byte_order="LittleEndian">
   <UnstructuredGrid>
      <Piece NumberOfPoints="25" NumberOfCells="0" > 
         <Points> 
            <DataArray type="Float64" Name="Position" NumberOfComponents="3" format="ascii"> 
               0  0  20  
               0.75  0  20  
               1.5  0  20  
               2.25  0  20  
               3  0  20  
               0  0.75  20  
               0.75  0.75  20  
               1.5  0.75  20  
               2.25  0.75  20  
               3  0.75  20  
               0  1.5  20  
               0.75  1.5  20  
               1.5  1.5  20  
               2.25  1.5  20  
               3  1.5  20  
               0  2.25  20  
               0.75  2.25  20  
               1.5  2.25  20  
               2.25  2.25  20  
               3  2.25  20  
               0  3  20  
               0.75  3  20  
               1.5  3  20  
               2.25  3  20  
               3  3  20  
            </DataArray>
         </Points> 

         <Cells>
            <DataArray type="Int32" Name="connectivity" NumberOfComponents="1" format="ascii">
               
            </DataArray> 
            <DataArray type="Int32" Name="offsets" NumberOfComponents="1" format="ascii">
               
            </DataArray>
            <DataArray type="UInt8"  Name="types" NumberOfComponents="1" format="ascii">
               
            </DataArray>
         </Cells>
         <PointData Scalars="Rank " Vectors="Displacement Velocity Traction ">
            <DataArray type="UInt32" Name="Rank" NumberOfComponents="1" format="ascii">
               0 0 0 0 0 0 0 0 0 0 0 0 0 0 0 0 0 0 0 0 0 0 0 0 0 
            </DataArray>
            <DataArray type="Float64" Name="Displacement" NumberOfComponents="3" format="ascii">
               0.000149628 0.000155193 -0.000654911  -9.27708e-07 0.000266838 -0.000642843  -9.36522e-05 0.000315231 -0.000609467  -8.12254e-05 0.000224098 -0.000640032  -0.000173774 0.000287497 -0.000653213  0.000262634 4.38693e-06 -0.000641863  8.03894e-05 8.40698e-05 -0.000571922  -3.02931e-05 0.000133543 -0.000519079  -8.40367e-05 8.53015e-05 -0.000593543  -0.000220998 0.000148619 -0.000624581  0.000312911 -8.83806e-05 -0.000610033  0.000131167 -2.57427e-05 -0.000519818  -1.44246e-06 2.15071e-06 -0.000425922  -0.000123483 2.17804e-05 -0.000521535  -0.000302701 8.74246e-05 -0.000605024  0.000223964 -7.84e-05 -0.00064174  8.40737e-05 -8.04675e-05 -0.000594464  1.90821e-05 -0.000120671 -0.000521865  -7.80781e-05 -7.5936e-05 -0.000576357  -0.000256121 -9.29007e-06 -0.000637683  0.000287474 -0.000172895 -0.000655743  0.000148083 -0.00021843 -0.000625319  8.53812e-05 -0.000300532 -0.000605424  -1.31253e-05 -0.000255071 -0.000637618  -0.000159961 -0.000155871 -0.00064706  
            </DataArray>
            <DataArray type="Float64" Name="Velocity" NumberOfComponents="3" format="ascii">
               0.000145961 0.000151915 -0.000691908  3.25277e-06 0.000257392 -0.000697505  -9.34051e-05 0.000303063 -0.000673542  -8.7616e-05 0.000219944 -0.000701697  -0.000170636 0.000289698 -0.000701257  0.000248745 8.22853e-06 -0.00069281  7.62701e-05 8.36297e-05 -0.000645519  -3.63848e-05 0.000132779 -0.000604453  -9.42423e-05 9.08445e-05 -0.00067171  -0.000220945 0.000156305 -0.000686658  0.000294195 -8.71665e-05 -0.000669409  0.000125112 -3.10893e-05 -0.000604836  -8.61459e-06 -2.99893e-06 -0.000523952  -0.000131455 2.0721e-05 -0.000606859  -0.000298217 8.28361e-05 -0.000671694  0.000212285 -7.79257e-05 -0.000699205  8.39769e-05 -8.75569e-05 -0.00067308  1.48632e-05 -0.000125204 -0.000607407  -8.56859e-05 -7.89894e-05 -0.00065106  -0.000255113 -1.90563e-05 -0.000696689  0.00028252 -0.000160393 -0.000694174  0.000148939 -0.000212451 -0.000684172  7.75895e-05 -0.000290704 -0.000668488  -2.40463e-05 -0.00024791 -0.000692352  -0.000164974 -0.000158664 -0.000690573  
            </DataArray>
            <DataArray type="Float64" Name="Traction" NumberOfComponents="3" format="ascii">
               -0.00111506 -0.00108854 -0.00807538  -0.000368293 -0.00191074 -0.00807538  0.000502697 -0.00222343 -0.00807538  0.000398715 -0.00145659 -0.00807538  0.000854696 -0.00166605 -0.00807538  -0.00193101 -0.000327686 -0.00807538  -0.000822775 -0.000791161 -0.00807538  0.000606845 -0.00123273 -0.00807538  0.00070724 -0.000809427 -0.00807538  0.00125739 -0.000827523 -0.00807538  -0.00225768 0.000545995 -0.00807538  -0.00127048 0.00063762 -0.00807538  0.000462392 0.000495096 -0.00807538  0.00110001 0.000126204 -0.00807538  0.00203534 -0.000108723 -0.00807538  -0.00149553 0.000451774 -0.00807538  -0.00084259 0.000744649 -0.00807538  9.75955e-05 0.00113717 -0.00807538  0.000694901 0.000729694 -0.00807538  0.00173057 0.000336669 -0.00807538  -0.00170975 0.000916527 -0.00807538  -0.000862304 0.00130077 -0.00807538  -0.000137185 0.00207765 -0.00807538  0.000316419 0.00177296 -0.00807538  0.00102611 0.00104409 -0.00807538  
            </DataArray>
         </PointData> 
      </Piece>
   </UnstructuredGrid> 
</VTKFile>
