<?xml version="1.0"?>
<VTKFile type="UnstructuredGrid" version="0.1" byte_order="LittleEndian">
   <UnstructuredGrid>
      <Piece NumberOfPoints="25" NumberOfCells="0" > 
         <Points> 
            <DataArray type="Float64" Name="Position" NumberOfComponents="3" format="ascii"> 
               0  0  20  
               0.75  0  20  
               1.5  0  20  
               2.25  0  20  
               3  0  20  
               0  0.75  20  
               0.75  0.75  20  
               1.5  0.75  20  
               2.25  0.75  20  
               3  0.75  20  
               0  1.5  20  
               0.75  1.5  20  
               1.5  1.5  20  
               2.25  1.5  20  
               3  1.5  20  
               0  2.25  20  
               0.75  2.25  20  
               1.5  2.25  20  
               2.25  2.25  20  
               3  2.25  20  
               0  3  20  
               0.75  3  20  
               1.5  3  20  
               2.25  3  20  
               3  3  20  
            </DataArray>
         </Points> 

         <Cells>
            <DataArray type="Int32" Name="connectivity" NumberOfComponents="1" format="ascii">
               
            </DataArray> 
            <DataArray type="Int32" Name="offsets" NumberOfComponents="1" format="ascii">
               
            </DataArray>
            <DataArray type="UInt8"  Name="types" NumberOfComponents="1" format="ascii">
               
            </DataArray>
         </Cells>
         <PointData Scalars="Rank " Vectors="Displacement Velocity Traction ">
            <DataArray type="UInt32" Name="Rank" NumberOfComponents="1" format="ascii">
               0 0 0 0 0 0 0 0 0 0 0 0 0 0 0 0 0 0 0 0 0 0 0 0 0 
            </DataArray>
            <DataArray type="Float64" Name="Displacement" NumberOfComponents="3" format="ascii">
               0.00346924 0.00344954 -0.0146654  0.000162305 0.00584608 -0.0141755  -0.00134512 0.00720412 -0.0134426  -0.0013003 0.00516066 -0.0142111  -0.00373769 0.00559119 -0.0146769  0.00585281 0.000143597 -0.0141756  0.00160554 0.00159857 -0.0123723  -0.000394842 0.00258737 -0.0108766  -0.00152295 0.00160727 -0.0127431  -0.00500311 0.00248217 -0.013989  0.00720286 -0.00135939 -0.0134335  0.00258945 -0.000407535 -0.0108725  5.88353e-05 4.92803e-05 -0.00833075  -0.00238429 0.000342413 -0.0109386  -0.00697607 0.00139343 -0.0134115  0.00514823 -0.00129892 -0.0141949  0.00160458 -0.00152784 -0.0127366  0.000348481 -0.00238628 -0.0109352  -0.00147934 -0.00147859 -0.0124821  -0.00569149 -0.000251832 -0.0141512  0.00557525 -0.00372245 -0.0146468  0.00247414 -0.00499741 -0.0139753  0.00139758 -0.00697173 -0.0134011  -0.000239138 -0.00568358 -0.0141459  -0.00348429 -0.00349691 -0.014572  
            </DataArray>
            <DataArray type="Float64" Name="Velocity" NumberOfComponents="3" format="ascii">
               0.00697712 0.00695609 -0.0270335  0.000153132 0.0119385 -0.025294  -0.00199038 0.0152998 -0.0234555  -0.0019385 0.0108271 -0.0252769  -0.00764019 0.0101645 -0.0270275  0.0119808 0.000137169 -0.0253165  0.00280663 0.00277499 -0.0206656  -0.000496307 0.00467361 -0.0166463  -0.00252184 0.00263424 -0.0210384  -0.0106063 0.00360312 -0.0250326  0.0153384 -0.00201659 -0.0234732  0.0047051 -0.000517079 -0.0166431  0.000215021 0.000193448 -0.0101915  -0.00425569 0.000492397 -0.0167215  -0.0149079 0.00210512 -0.0234112  0.0108556 -0.0019812 -0.025284  0.00265897 -0.00255175 -0.02103  0.000511357 -0.00428417 -0.0167179  -0.0025546 -0.00258149 -0.0207958  -0.0116841 -0.000278984 -0.0252365  0.010196 -0.00768119 -0.0270556  0.00363417 -0.0106437 -0.0250418  0.00212202 -0.0149432 -0.0234266  -0.000265967 -0.0117163 -0.0252556  -0.00694972 -0.0069677 -0.0268817  
            </DataArray>
            <DataArray type="Float64" Name="Traction" NumberOfComponents="3" format="ascii">
               -0.0215729 -0.0216721 -0.410897  -0.00414153 -0.0424682 -0.410897  0.0116576 -0.0528145 -0.410897  0.00972499 -0.0348306 -0.410897  0.0219909 -0.0334075 -0.410897  -0.0423276 -0.00428725 -0.410897  -0.0167146 -0.0168739 -0.410897  0.0133815 -0.0267121 -0.410897  0.0162748 -0.0165102 -0.410897  0.032778 -0.0153486 -0.410897  -0.0526481 0.0114901 -0.410897  -0.0265674 0.0132607 -0.410897  0.0134573 0.0133593 -0.410897  0.0259951 0.00588277 -0.410897  0.0512772 -0.00192989 -0.410897  -0.0345878 0.00943593 -0.410897  -0.0163592 0.0160812 -0.410897  0.0059692 0.0258233 -0.410897  0.0165372 0.0163941 -0.410897  0.0410395 0.00530315 -0.410897  -0.033118 0.0215952 -0.410897  -0.0151762 0.0325001 -0.410897  -0.00184972 0.0510475 -0.410897  0.00533978 0.0408454 -0.410897  0.0219519 0.0219156 -0.410897  
            </DataArray>
         </PointData> 
      </Piece>
   </UnstructuredGrid> 
</VTKFile>
