<?xml version="1.0"?>
<VTKFile type="UnstructuredGrid" version="0.1" byte_order="LittleEndian">
   <UnstructuredGrid>
      <Piece NumberOfPoints="25" NumberOfCells="0" > 
         <Points> 
            <DataArray type="Float64" Name="Position" NumberOfComponents="3" format="ascii"> 
               0  0  15  
               0.75  0  15  
               1.5  0  15  
               2.25  0  15  
               3  0  15  
               0  0.75  15  
               0.75  0.75  15  
               1.5  0.75  15  
               2.25  0.75  15  
               3  0.75  15  
               0  1.5  15  
               0.75  1.5  15  
               1.5  1.5  15  
               2.25  1.5  15  
               3  1.5  15  
               0  2.25  15  
               0.75  2.25  15  
               1.5  2.25  15  
               2.25  2.25  15  
               3  2.25  15  
               0  3  15  
               0.75  3  15  
               1.5  3  15  
               2.25  3  15  
               3  3  15  
            </DataArray>
         </Points> 

         <Cells>
            <DataArray type="Int32" Name="connectivity" NumberOfComponents="1" format="ascii">
               
            </DataArray> 
            <DataArray type="Int32" Name="offsets" NumberOfComponents="1" format="ascii">
               
            </DataArray>
            <DataArray type="UInt8"  Name="types" NumberOfComponents="1" format="ascii">
               
            </DataArray>
         </Cells>
         <PointData Scalars="Rank " Vectors="Displacement Velocity Traction ">
            <DataArray type="UInt32" Name="Rank" NumberOfComponents="1" format="ascii">
               0 0 0 0 0 0 0 0 0 0 0 0 0 0 0 0 0 0 0 0 0 0 0 0 0 
            </DataArray>
            <DataArray type="Float64" Name="Displacement" NumberOfComponents="3" format="ascii">
               0.00142929 0.00154305 -0.001927  0.00132555 0.000152699 -0.0019278  0.000976008 -0.000299703 -0.00185781  0.000578656 -0.000311816 -0.00193788  0.000425843 -0.00111452 -0.00194501  -4.19799e-05 0.00143934 -0.00191935  -5.24422e-05 0.000138896 -0.00177198  -0.00030157 -0.000176891 -0.00164981  -0.000537025 -0.000308275 -0.00184195  -0.000522014 -0.00128213 -0.00189699  -0.000487464 0.00109901 -0.00184997  -0.000364557 -0.000123133 -0.00165033  -0.000525356 -0.000347323 -0.00141597  -0.000678707 -0.000571009 -0.0016576  -0.000552781 -0.00168601 -0.00185281  -0.00052587 0.000708694 -0.00193252  -0.000516401 -0.00037067 -0.00184384  -0.0007633 -0.000507879 -0.00165818  -0.00101433 -0.000837519 -0.00178731  -0.00102702 -0.00201631 -0.00192427  -0.0013513 0.000555657 -0.00193021  -0.00151 -0.00036328 -0.0018912  -0.00189448 -0.000391203 -0.00184563  -0.00220629 -0.000861025 -0.00191601  -0.00229426 -0.0021118 -0.00191774  
            </DataArray>
            <DataArray type="Float64" Name="Velocity" NumberOfComponents="3" format="ascii">
               0.000478322 0.000628141 -0.00184809  0.000421667 2.35204e-05 -0.00186122  0.000268395 -0.000215935 -0.00181046  0.000105231 -0.000197548 -0.00188112  3.69214e-05 -0.000525212 -0.00187188  -0.00012555 0.000570124 -0.00185407  -0.000144395 2.93114e-06 -0.00173922  -0.000280675 -0.000165932 -0.00164033  -0.000407968 -0.000204173 -0.00180905  -0.00040961 -0.000615649 -0.00184554  -0.000346587 0.000414602 -0.00180044  -0.000295843 -0.000135701 -0.00163927  -0.000367338 -0.000236717 -0.00143927  -0.000442881 -0.000326561 -0.00164962  -0.000393106 -0.000809431 -0.00181097  -0.000334586 0.000248875 -0.00187102  -0.000341514 -0.000261496 -0.00180868  -0.000468783 -0.000306811 -0.00164921  -0.000604399 -0.000453532 -0.00175684  -0.000625186 -0.000971431 -0.00186526  -0.000692202 0.000178827 -0.00184881  -0.000782179 -0.000259935 -0.0018365  -0.000978137 -0.000250305 -0.00180126  -0.00114554 -0.000468051 -0.00185622  -0.00120594 -0.00102813 -0.00184519  
            </DataArray>
            <DataArray type="Float64" Name="Traction" NumberOfComponents="3" format="ascii">
               0.028618 0.0297167 -0.0785795  0.00651921 0.0346761 -0.0785795  -0.00772291 0.0359912 -0.0785795  -0.0223144 0.0359637 -0.0785795  -0.043245 0.0385348 -0.0785795  0.0352659 0.00794387 -0.0785795  0.0124529 0.0137413 -0.0785795  -0.0013096 0.0141978 -0.0785795  -0.0173402 0.0139078 -0.0785795  -0.0386302 0.0183747 -0.0785795  0.0365089 -0.0066998 -0.0785795  0.0123876 -0.000231518 -0.0785795  -0.00162425 -0.000429323 -0.0785795  -0.0181594 -0.00114153 -0.0785795  -0.039312 0.00411333 -0.0785795  0.0361905 -0.021711 -0.0785795  0.0126264 -0.0166552 -0.0785795  -0.00211233 -0.0174451 -0.0785795  -0.0181425 -0.0176145 -0.0785795  -0.0349241 -0.0132263 -0.0785795  0.0388904 -0.043704 -0.0785795  0.0174251 -0.0378539 -0.0785795  0.00359487 -0.03789 -0.0785795  -0.0133703 -0.0345207 -0.0785795  -0.0263891 -0.026249 -0.0785795  
            </DataArray>
         </PointData> 
      </Piece>
   </UnstructuredGrid> 
</VTKFile>
