<?xml version="1.0"?>
<VTKFile type="UnstructuredGrid" version="0.1" byte_order="LittleEndian">
   <UnstructuredGrid>
      <Piece NumberOfPoints="25" NumberOfCells="0" > 
         <Points> 
            <DataArray type="Float64" Name="Position" NumberOfComponents="3" format="ascii"> 
               0  0  15  
               0.75  0  15  
               1.5  0  15  
               2.25  0  15  
               3  0  15  
               0  0.75  15  
               0.75  0.75  15  
               1.5  0.75  15  
               2.25  0.75  15  
               3  0.75  15  
               0  1.5  15  
               0.75  1.5  15  
               1.5  1.5  15  
               2.25  1.5  15  
               3  1.5  15  
               0  2.25  15  
               0.75  2.25  15  
               1.5  2.25  15  
               2.25  2.25  15  
               3  2.25  15  
               0  3  15  
               0.75  3  15  
               1.5  3  15  
               2.25  3  15  
               3  3  15  
            </DataArray>
         </Points> 

         <Cells>
            <DataArray type="Int32" Name="connectivity" NumberOfComponents="1" format="ascii">
               
            </DataArray> 
            <DataArray type="Int32" Name="offsets" NumberOfComponents="1" format="ascii">
               
            </DataArray>
            <DataArray type="UInt8"  Name="types" NumberOfComponents="1" format="ascii">
               
            </DataArray>
         </Cells>
         <PointData Scalars="Rank " Vectors="Displacement Velocity Traction ">
            <DataArray type="UInt32" Name="Rank" NumberOfComponents="1" format="ascii">
               0 0 0 0 0 0 0 0 0 0 0 0 0 0 0 0 0 0 0 0 0 0 0 0 0 
            </DataArray>
            <DataArray type="Float64" Name="Displacement" NumberOfComponents="3" format="ascii">
               1.87121e-09 2.07314e-09 -4.85239e-09  1.64178e-09 -3.7787e-10 -4.41629e-09  9.35484e-10 5.92522e-10 -3.99238e-09  3.59021e-10 -5.58343e-11 -4.41479e-09  2.53433e-10 -2.11592e-10 -4.84814e-09  -3.2525e-10 1.89683e-09 -4.41626e-09  -3.66852e-10 -4.35038e-10 -3.25758e-09  -1.63837e-10 5.55652e-10 -2.11568e-09  2.46507e-10 -5.15272e-12 -3.25704e-09  3.77445e-10 -2.99434e-10 -4.41506e-09  7.38586e-10 8.95595e-10 -3.99238e-09  6.57354e-10 -1.19688e-10 -2.11561e-09  -9.32829e-11 -4.41185e-11 -2.6308e-10  -1.02763e-09 3.61412e-10 -2.11607e-09  -1.34214e-09 -1.17876e-09 -3.99336e-09  -2.52401e-11 3.62754e-10 -4.41474e-09  -4.32082e-11 2.51655e-10 -3.25704e-09  3.72157e-10 -9.32524e-10 -2.11615e-09  5.09147e-10 3.60491e-10 -3.25789e-09  1.74449e-10 -1.59154e-09 -4.41648e-09  -3.97795e-10 1.91856e-10 -4.84809e-09  -3.7069e-10 2.93712e-10 -4.41515e-09  -1.58798e-09 -1.00787e-09 -3.99338e-09  -2.26294e-09 -4.2105e-11 -4.41661e-09  -1.7762e-09 -1.55567e-09 -4.85167e-09  
            </DataArray>
            <DataArray type="Float64" Name="Velocity" NumberOfComponents="3" format="ascii">
               1.6171e-08 1.84003e-08 -4.22408e-08  1.36845e-08 -3.36429e-09 -3.82809e-08  8.38615e-09 5.59057e-09 -3.4475e-08  3.76156e-09 -1.29378e-10 -3.82495e-08  2.01801e-09 -1.00679e-09 -4.21737e-08  -2.84862e-09 1.59035e-08 -3.82808e-08  -2.92674e-09 -3.51597e-09 -2.79356e-08  -1.2341e-09 4.17211e-09 -1.78187e-08  1.88823e-09 6.26973e-11 -2.79261e-08  2.96915e-09 -3.29283e-09 -3.8256e-08  7.05702e-09 8.2256e-09 -3.44752e-08  5.14811e-09 -9.26141e-10 -1.78182e-08  -1.07908e-09 -4.93905e-10 -1.48235e-09  -8.3103e-09 2.70701e-09 -1.78268e-08  -1.18087e-08 -9.72885e-09 -3.44924e-08  -1.23718e-10 3.68857e-09 -3.8249e-08  -1.06989e-10 1.92728e-09 -2.79262e-08  2.84231e-09 -7.40544e-09 -1.78276e-08  4.12849e-09 2.9489e-09 -2.79415e-08  2.19307e-09 -1.2823e-08 -3.8284e-08  -2.46865e-09 1.51947e-09 -4.21731e-08  -4.19969e-09 2.52218e-09 -3.82567e-08  -1.34233e-08 -9.16503e-09 -3.4493e-08  -1.88017e-08 1.27444e-10 -3.82853e-08  -1.69084e-08 -1.40812e-08 -4.22301e-08  
            </DataArray>
            <DataArray type="Float64" Name="Traction" NumberOfComponents="3" format="ascii">
               4.29074e-07 4.54785e-07 -1.13843e-05  -8.07453e-08 4.61782e-07 -1.13843e-05  9.73227e-09 1.97646e-07 -1.13843e-05  1.84517e-08 3.10299e-07 -1.13843e-05  -3.23507e-07 3.69912e-07 -1.13843e-05  3.41085e-07 -1.09933e-07 -1.13843e-05  -6.89912e-08 -9.3342e-08 -1.13843e-05  -1.70862e-08 -9.33506e-08 -1.13843e-05  1.13691e-07 -3.47719e-08 -1.13843e-05  -5.41165e-07 4.52784e-08 -1.13843e-05  3.13331e-07 6.48343e-09 -1.13843e-05  -7.92299e-08 -7.35362e-09 -1.13843e-05  -3.60059e-08 -2.17895e-08 -1.13843e-05  2.10578e-07 7.7615e-09 -1.13843e-05  -7.16015e-07 1.88573e-08 -1.13843e-05  3.86273e-07 7.05579e-08 -1.13843e-05  -5.24784e-08 1.13029e-07 -1.13843e-05  1.48196e-09 1.59277e-07 -1.13843e-05  9.16003e-08 5.1721e-08 -1.13843e-05  -4.95634e-07 -5.26831e-08 -1.13843e-05  3.24422e-07 -2.92354e-07 -1.13843e-05  -9.06773e-09 -4.98827e-07 -1.13843e-05  2.14346e-08 -4.71841e-07 -1.13843e-05  -1.91117e-08 -2.97527e-07 -1.13843e-05  -2.72602e-07 -2.70503e-07 -1.13843e-05  
            </DataArray>
         </PointData> 
      </Piece>
   </UnstructuredGrid> 
</VTKFile>
