<?xml version="1.0"?>
<VTKFile type="UnstructuredGrid" version="0.1" byte_order="LittleEndian">
   <UnstructuredGrid>
      <Piece NumberOfPoints="25" NumberOfCells="0" > 
         <Points> 
            <DataArray type="Float64" Name="Position" NumberOfComponents="3" format="ascii"> 
               0  0  15  
               0.75  0  15  
               1.5  0  15  
               2.25  0  15  
               3  0  15  
               0  0.75  15  
               0.75  0.75  15  
               1.5  0.75  15  
               2.25  0.75  15  
               3  0.75  15  
               0  1.5  15  
               0.75  1.5  15  
               1.5  1.5  15  
               2.25  1.5  15  
               3  1.5  15  
               0  2.25  15  
               0.75  2.25  15  
               1.5  2.25  15  
               2.25  2.25  15  
               3  2.25  15  
               0  3  15  
               0.75  3  15  
               1.5  3  15  
               2.25  3  15  
               3  3  15  
            </DataArray>
         </Points> 

         <Cells>
            <DataArray type="Int32" Name="connectivity" NumberOfComponents="1" format="ascii">
               
            </DataArray> 
            <DataArray type="Int32" Name="offsets" NumberOfComponents="1" format="ascii">
               
            </DataArray>
            <DataArray type="UInt8"  Name="types" NumberOfComponents="1" format="ascii">
               
            </DataArray>
         </Cells>
         <PointData Scalars="Rank " Vectors="Displacement Velocity Traction ">
            <DataArray type="UInt32" Name="Rank" NumberOfComponents="1" format="ascii">
               0 0 0 0 0 0 0 0 0 0 0 0 0 0 0 0 0 0 0 0 0 0 0 0 0 
            </DataArray>
            <DataArray type="Float64" Name="Displacement" NumberOfComponents="3" format="ascii">
               0.000102027 4.52243e-05 2.51263e-06  0.000101036 8.39936e-06 1.65377e-06  9.28818e-05 1.01714e-05 1.0944e-06  8.32583e-05 1.05995e-05 1.18136e-06  8.0956e-05 -5.11569e-06 2.42485e-06  3.6727e-05 4.51626e-05 1.74154e-06  3.79946e-05 9.83923e-06 1.09128e-07  4.01154e-05 9.01516e-06 -3.3706e-07  4.3025e-05 7.95607e-06 1.75463e-07  4.56353e-05 -8.28191e-06 9.79654e-07  3.28904e-05 4.10399e-05 1.25498e-06  3.16468e-05 9.69417e-06 -3.16671e-07  2.41775e-05 -4.60199e-07 -1.21298e-06  1.84455e-05 1.61903e-06 -3.59244e-07  1.82239e-05 -1.56792e-05 8.60423e-07  2.17107e-05 3.46181e-05 1.35295e-06  2.21364e-05 7.49791e-06 1.67118e-07  2.32237e-05 -9.0936e-06 -3.73194e-07  2.59859e-05 -1.94779e-06 1.55934e-07  2.62536e-05 -1.59986e-05 1.32596e-06  5.5629e-07 3.26233e-05 2.67949e-06  2.89947e-08 5.51934e-06 1.03527e-06  -1.58425e-06 -1.411e-05 1.02138e-06  3.25072e-06 -5.22543e-06 1.57592e-06  8.05526e-06 -1.24045e-05 2.00805e-06  
            </DataArray>
            <DataArray type="Float64" Name="Velocity" NumberOfComponents="3" format="ascii">
               8.87051e-05 5.34884e-05 9.4724e-07  8.65124e-05 1.55953e-05 2.15701e-06  7.79214e-05 1.36325e-05 3.01457e-06  6.84278e-05 4.99246e-06 2.70931e-06  6.55184e-05 -1.87717e-05 9.54632e-07  3.69815e-05 5.26704e-05 2.03656e-06  3.79827e-05 1.64864e-05 3.79809e-06  3.88501e-05 1.2811e-05 5.39024e-06  4.13578e-05 2.58543e-06 4.6132e-06  4.39837e-05 -2.14496e-05 2.06494e-06  2.56333e-05 4.56396e-05 3.0388e-06  2.71877e-05 1.35219e-05 5.44952e-06  2.32057e-05 3.18526e-06 6.90967e-06  2.11771e-05 -5.38542e-06 5.38381e-06  2.38789e-05 -2.93158e-05 2.51186e-06  1.18515e-05 3.67786e-05 2.80856e-06  1.33622e-05 9.13902e-06 4.63879e-06  1.39675e-05 -5.02453e-06 5.42117e-06  1.50534e-05 -1.13531e-05 3.94317e-06  1.61003e-05 -3.43105e-05 1.69796e-06  -1.01636e-06 3.41006e-05 1.18593e-06  -1.9586e-06 7.01e-06 2.15896e-06  -4.24364e-06 -8.14068e-06 2.751e-06  -3.59404e-06 -1.38301e-05 1.93401e-06  -2.01484e-06 -3.38987e-05 3.04172e-07  
            </DataArray>
            <DataArray type="Float64" Name="Traction" NumberOfComponents="3" format="ascii">
               0 0 0  0 0 0  0 0 0  0 0 0  0 0 0  0 0 0  0 0 0  0 0 0  0 0 0  0 0 0  0 0 0  0 0 0  0 0 0  0 0 0  0 0 0  0 0 0  0 0 0  0 0 0  0 0 0  0 0 0  0 0 0  0 0 0  0 0 0  0 0 0  0 0 0  
            </DataArray>
         </PointData> 
      </Piece>
   </UnstructuredGrid> 
</VTKFile>
