<?xml version="1.0"?>
<VTKFile type="UnstructuredGrid" version="0.1" byte_order="LittleEndian">
   <UnstructuredGrid>
      <Piece NumberOfPoints="25" NumberOfCells="0" > 
         <Points> 
            <DataArray type="Float64" Name="Position" NumberOfComponents="3" format="ascii"> 
               0  0  20  
               0.75  0  20  
               1.5  0  20  
               2.25  0  20  
               3  0  20  
               0  0.75  20  
               0.75  0.75  20  
               1.5  0.75  20  
               2.25  0.75  20  
               3  0.75  20  
               0  1.5  20  
               0.75  1.5  20  
               1.5  1.5  20  
               2.25  1.5  20  
               3  1.5  20  
               0  2.25  20  
               0.75  2.25  20  
               1.5  2.25  20  
               2.25  2.25  20  
               3  2.25  20  
               0  3  20  
               0.75  3  20  
               1.5  3  20  
               2.25  3  20  
               3  3  20  
            </DataArray>
         </Points> 

         <Cells>
            <DataArray type="Int32" Name="connectivity" NumberOfComponents="1" format="ascii">
               
            </DataArray> 
            <DataArray type="Int32" Name="offsets" NumberOfComponents="1" format="ascii">
               
            </DataArray>
            <DataArray type="UInt8"  Name="types" NumberOfComponents="1" format="ascii">
               
            </DataArray>
         </Cells>
         <PointData Scalars="Rank " Vectors="Displacement Velocity Traction ">
            <DataArray type="UInt32" Name="Rank" NumberOfComponents="1" format="ascii">
               0 0 0 0 0 0 0 0 0 0 0 0 0 0 0 0 0 0 0 0 0 0 0 0 0 
            </DataArray>
            <DataArray type="Float64" Name="Displacement" NumberOfComponents="3" format="ascii">
               0 0 0  0 0 0  0 0 0  0 0 0  0 0 0  0 0 0  0 0 0  0 0 0  0 0 0  0 0 0  0 0 0  0 0 0  0 0 0  0 0 0  0 0 0  0 0 0  0 0 0  0 0 0  0 0 0  0 0 0  0 0 0  0 0 0  0 0 0  0 0 0  0 0 0  
            </DataArray>
            <DataArray type="Float64" Name="Velocity" NumberOfComponents="3" format="ascii">
               0 0 0  0 0 0  0 0 0  0 0 0  0 0 0  0 0 0  0 0 0  0 0 0  0 0 0  0 0 0  0 0 0  0 0 0  0 0 0  0 0 0  0 0 0  0 0 0  0 0 0  0 0 0  0 0 0  0 0 0  0 0 0  0 0 0  0 0 0  0 0 0  0 0 0  
            </DataArray>
            <DataArray type="Float64" Name="Traction" NumberOfComponents="3" format="ascii">
               6.73014e-06 7.10517e-06 5.24155e-05  -5.71024e-06 2.34316e-05 5.24155e-05  -7.31359e-06 2.49038e-05 5.24155e-05  -1.21845e-05 1.83981e-05 5.24155e-05  -2.71788e-05 2.28698e-05 5.24155e-05  2.60187e-05 -4.36578e-06 5.24155e-05  9.59657e-06 8.41969e-06 5.24155e-05  6.64655e-07 1.06349e-05 5.24155e-05  -6.76087e-06 5.99352e-06 5.24155e-05  -2.19975e-05 1.04077e-05 5.24155e-05  2.52565e-05 -6.80969e-06 5.24155e-05  1.02269e-05 7.01771e-08 5.24155e-05  -2.23515e-06 -1.42429e-06 5.24155e-05  -9.00168e-06 -1.57565e-06 5.24155e-05  -2.43624e-05 7.12543e-06 5.24155e-05  1.94092e-05 -1.22214e-05 5.24155e-05  6.02307e-06 -6.84446e-06 5.24155e-05  -3.21997e-06 -8.88159e-06 5.24155e-05  -9.11998e-06 -7.79496e-06 5.24155e-05  -2.33835e-05 2.64535e-06 5.24155e-05  2.42384e-05 -2.71839e-05 5.24155e-05  1.0677e-05 -2.16461e-05 5.24155e-05  5.59057e-06 -2.42026e-05 5.24155e-05  1.77235e-06 -2.21699e-05 5.24155e-05  -1.00027e-05 -9.93929e-06 5.24155e-05  
            </DataArray>
         </PointData> 
      </Piece>
   </UnstructuredGrid> 
</VTKFile>
