<?xml version="1.0"?>
<VTKFile type="UnstructuredGrid" version="0.1" byte_order="LittleEndian">
   <UnstructuredGrid>
      <Piece NumberOfPoints="25" NumberOfCells="0" > 
         <Points> 
            <DataArray type="Float64" Name="Position" NumberOfComponents="3" format="ascii"> 
               0  0  15  
               0.75  0  15  
               1.5  0  15  
               2.25  0  15  
               3  0  15  
               0  0.75  15  
               0.75  0.75  15  
               1.5  0.75  15  
               2.25  0.75  15  
               3  0.75  15  
               0  1.5  15  
               0.75  1.5  15  
               1.5  1.5  15  
               2.25  1.5  15  
               3  1.5  15  
               0  2.25  15  
               0.75  2.25  15  
               1.5  2.25  15  
               2.25  2.25  15  
               3  2.25  15  
               0  3  15  
               0.75  3  15  
               1.5  3  15  
               2.25  3  15  
               3  3  15  
            </DataArray>
         </Points> 

         <Cells>
            <DataArray type="Int32" Name="connectivity" NumberOfComponents="1" format="ascii">
               
            </DataArray> 
            <DataArray type="Int32" Name="offsets" NumberOfComponents="1" format="ascii">
               
            </DataArray>
            <DataArray type="UInt8"  Name="types" NumberOfComponents="1" format="ascii">
               
            </DataArray>
         </Cells>
         <PointData Scalars="Rank " Vectors="Displacement Velocity Traction ">
            <DataArray type="UInt32" Name="Rank" NumberOfComponents="1" format="ascii">
               0 0 0 0 0 0 0 0 0 0 0 0 0 0 0 0 0 0 0 0 0 0 0 0 0 
            </DataArray>
            <DataArray type="Float64" Name="Displacement" NumberOfComponents="3" format="ascii">
               0.00174273 0.00214005 -0.0198938  0.00136066 0.000451563 -0.019026  0.000892102 -0.000265429 -0.0178946  0.000538647 -0.000534526 -0.0190717  0.00023564 -0.00131512 -0.0198919  -1.80683e-06 0.00175506 -0.0190294  -0.000350911 9.59809e-05 -0.016316  -0.000893859 -0.00040975 -0.0139806  -0.00131422 -0.000795332 -0.0167467  -0.00149183 -0.00184587 -0.0188063  -0.000689039 0.00128658 -0.0178881  -0.000830026 -0.000463762 -0.0139761  -0.00116704 -0.00075584 -0.0101036  -0.00154446 -0.00121721 -0.0140552  -0.00165503 -0.00255447 -0.0178576  -0.000991613 0.000931715 -0.0190566  -0.00124637 -0.000896095 -0.0167392  -0.00166047 -0.00113558 -0.0140514  -0.00217856 -0.00173855 -0.0164465  -0.00251229 -0.00317831 -0.0189905  -0.00182368 0.000625588 -0.0198666  -0.00234737 -0.00107599 -0.0187945  -0.00304722 -0.00124447 -0.0178498  -0.00366584 -0.0020733 -0.0189881  -0.0040659 -0.00358041 -0.0197674  
            </DataArray>
            <DataArray type="Float64" Name="Velocity" NumberOfComponents="3" format="ascii">
               -0.000904853 -0.000780264 -0.0444371  -0.00155535 0.000978305 -0.0411044  -0.00123493 0.00124129 -0.0377085  -0.0003871 0.000455974 -0.0411807  -0.000596361 0.00194661 -0.0444467  0.000866084 -0.00143612 -0.0411309  -0.000118378 -7.83046e-06 -0.0329734  -0.000377822 0.000187631 -0.0254975  -0.000356357 -0.000366873 -0.0334105  -0.000995223 0.0011931 -0.040883  0.00114649 -0.0011188 -0.0377309  8.98635e-05 -0.000266489 -0.0254948  -3.46607e-05 7.08663e-05 -0.0136266  -0.000328592 -0.000263009 -0.0255935  -0.0013342 0.00114752 -0.0376734  0.000355209 -0.000268982 -0.0411924  -0.000470117 -0.000241745 -0.0334022  -0.000376104 -0.000219308 -0.0255906  -0.000572283 -0.000453211 -0.0331427  -0.00151396 0.0010066 -0.0410378  0.00182852 -0.000478416 -0.044487  0.00107365 -0.000875424 -0.040898  0.00101488 -0.0012183 -0.0376948  0.000862749 -0.00139301 -0.0410615  0.000144868 0.000287719 -0.0442404  
            </DataArray>
            <DataArray type="Float64" Name="Traction" NumberOfComponents="3" format="ascii">
               0.028981 0.0301216 0.269434  0.00936487 0.0200784 0.269434  -0.0071572 0.00774692 0.269434  -0.0363017 0.0244831 0.269434  -0.0520359 0.0376517 0.269434  0.0203591 0.0108098 0.269434  0.00960746 0.010782 0.269434  0.0127681 0.000928812 0.269434  -0.0188283 0.0123878 0.269434  -0.0313177 0.0254276 0.269434  0.00861475 -0.00612158 0.269434  -0.000558005 0.0136286 0.269434  0.0190825 0.0202041 0.269434  -0.00771242 0.0109737 0.269434  -0.0129872 0.0122725 0.269434  0.0252915 -0.0357884 0.269434  0.011817 -0.0182134 0.269434  0.010245 -0.00676314 0.269434  -0.0166665 -0.0157458 0.269434  -0.0216914 -0.016902 0.269434  0.0387737 -0.0521932 0.269434  0.0255194 -0.030499 0.269434  0.0119602 -0.0114737 0.269434  -0.0176568 -0.0206311 0.269434  -0.0282646 -0.0273293 0.269434  
            </DataArray>
         </PointData> 
      </Piece>
   </UnstructuredGrid> 
</VTKFile>
