<?xml version="1.0"?>
<VTKFile type="UnstructuredGrid" version="0.1" byte_order="LittleEndian">
   <UnstructuredGrid>
      <Piece NumberOfPoints="25" NumberOfCells="0" > 
         <Points> 
            <DataArray type="Float64" Name="Position" NumberOfComponents="3" format="ascii"> 
               0  0  15  
               0.75  0  15  
               1.5  0  15  
               2.25  0  15  
               3  0  15  
               0  0.75  15  
               0.75  0.75  15  
               1.5  0.75  15  
               2.25  0.75  15  
               3  0.75  15  
               0  1.5  15  
               0.75  1.5  15  
               1.5  1.5  15  
               2.25  1.5  15  
               3  1.5  15  
               0  2.25  15  
               0.75  2.25  15  
               1.5  2.25  15  
               2.25  2.25  15  
               3  2.25  15  
               0  3  15  
               0.75  3  15  
               1.5  3  15  
               2.25  3  15  
               3  3  15  
            </DataArray>
         </Points> 

         <Cells>
            <DataArray type="Int32" Name="connectivity" NumberOfComponents="1" format="ascii">
               
            </DataArray> 
            <DataArray type="Int32" Name="offsets" NumberOfComponents="1" format="ascii">
               
            </DataArray>
            <DataArray type="UInt8"  Name="types" NumberOfComponents="1" format="ascii">
               
            </DataArray>
         </Cells>
         <PointData Scalars="Rank " Vectors="Displacement Velocity Traction ">
            <DataArray type="UInt32" Name="Rank" NumberOfComponents="1" format="ascii">
               0 0 0 0 0 0 0 0 0 0 0 0 0 0 0 0 0 0 0 0 0 0 0 0 0 
            </DataArray>
            <DataArray type="Float64" Name="Displacement" NumberOfComponents="3" format="ascii">
               5.74738e-08 7.18517e-08 -1.15119e-07  5.24536e-08 -1.02104e-08 -1.03822e-07  3.99219e-08 1.39679e-08 -9.34935e-08  2.69764e-08 2.4945e-09 -1.03367e-07  2.25966e-08 -1.07223e-08 -1.14719e-07  -8.45027e-09 6.36136e-08 -1.03824e-07  -7.95183e-09 -1.12536e-08 -7.67183e-08  -3.90151e-09 8.9604e-09 -5.17169e-08  3.71949e-09 2.04927e-09 -7.6729e-08  6.31331e-09 -1.77705e-08 -1.034e-07  2.34834e-08 4.03487e-08 -9.34973e-08  1.58328e-08 -3.3785e-09 -5.17159e-08  -6.59701e-09 -3.86224e-09 -1.2532e-08  -2.83229e-08 8.29506e-09 -5.18107e-08  -3.91036e-08 -3.35603e-08 -9.36449e-08  3.73749e-09 2.4834e-08 -1.03364e-07  2.83563e-09 5.2103e-09 -7.67312e-08  9.14645e-09 -2.32998e-08 -5.18151e-08  1.37826e-08 9.19262e-09 -7.67876e-08  9.98891e-09 -4.07798e-08 -1.03846e-07  -2.06579e-08 1.82994e-08 -1.14713e-07  -2.77372e-08 7.47988e-09 -1.03405e-07  -5.54909e-08 -2.85845e-08 -9.36541e-08  -7.38426e-08 2.92012e-09 -1.03853e-07  -7.08156e-08 -4.43293e-08 -1.15055e-07  
            </DataArray>
            <DataArray type="Float64" Name="Velocity" NumberOfComponents="3" format="ascii">
               2.19677e-07 2.82689e-07 -4.87544e-07  2.05789e-07 -3.4875e-08 -4.39986e-07  1.69193e-07 3.64221e-08 -3.94057e-07  1.28212e-07 1.18756e-08 -4.39465e-07  1.13483e-07 -5.03212e-08 -4.86871e-07  -2.84368e-08 2.52106e-07 -4.39984e-07  -2.48795e-08 -3.91389e-08 -3.15334e-07  -1.3885e-08 2.03069e-08 -1.93648e-07  7.92406e-09 1.04111e-08 -3.15332e-07  1.56268e-08 -7.5101e-08 -4.39501e-07  8.12051e-08 1.70878e-07 -3.94069e-07  5.40278e-08 -1.24368e-08 -1.93641e-07  -2.74067e-08 -1.80143e-08 2.9515e-09  -1.02634e-07 3.0701e-08 -1.93759e-07  -1.40515e-07 -1.23251e-07 -3.94265e-07  2.02974e-08 1.15782e-07 -4.39458e-07  1.68303e-08 1.67899e-08 -3.15335e-07  3.43393e-08 -8.09211e-08 -1.9377e-07  4.9232e-08 3.26509e-08 -3.1542e-07  3.72532e-08 -1.39866e-07 -4.40015e-07  -1.01296e-07 9.17104e-08 -4.8686e-07  -1.27846e-07 2.57059e-08 -4.39509e-07  -2.25025e-07 -9.66438e-08 -3.94277e-07  -2.90137e-07 1.21871e-08 -4.40029e-07  -2.80864e-07 -1.50351e-07 -4.87442e-07  
            </DataArray>
            <DataArray type="Float64" Name="Traction" NumberOfComponents="3" format="ascii">
               0 0 0  0 0 0  0 0 0  0 0 0  0 0 0  0 0 0  0 0 0  0 0 0  0 0 0  0 0 0  0 0 0  0 0 0  0 0 0  0 0 0  0 0 0  0 0 0  0 0 0  0 0 0  0 0 0  0 0 0  0 0 0  0 0 0  0 0 0  0 0 0  0 0 0  
            </DataArray>
         </PointData> 
      </Piece>
   </UnstructuredGrid> 
</VTKFile>
