<?xml version="1.0"?>
<VTKFile type="UnstructuredGrid" version="0.1" byte_order="LittleEndian">
   <UnstructuredGrid>
      <Piece NumberOfPoints="25" NumberOfCells="0" > 
         <Points> 
            <DataArray type="Float64" Name="Position" NumberOfComponents="3" format="ascii"> 
               0  0  15  
               0.75  0  15  
               1.5  0  15  
               2.25  0  15  
               3  0  15  
               0  0.75  15  
               0.75  0.75  15  
               1.5  0.75  15  
               2.25  0.75  15  
               3  0.75  15  
               0  1.5  15  
               0.75  1.5  15  
               1.5  1.5  15  
               2.25  1.5  15  
               3  1.5  15  
               0  2.25  15  
               0.75  2.25  15  
               1.5  2.25  15  
               2.25  2.25  15  
               3  2.25  15  
               0  3  15  
               0.75  3  15  
               1.5  3  15  
               2.25  3  15  
               3  3  15  
            </DataArray>
         </Points> 

         <Cells>
            <DataArray type="Int32" Name="connectivity" NumberOfComponents="1" format="ascii">
               
            </DataArray> 
            <DataArray type="Int32" Name="offsets" NumberOfComponents="1" format="ascii">
               
            </DataArray>
            <DataArray type="UInt8"  Name="types" NumberOfComponents="1" format="ascii">
               
            </DataArray>
         </Cells>
         <PointData Scalars="Rank " Vectors="Displacement Velocity Traction ">
            <DataArray type="UInt32" Name="Rank" NumberOfComponents="1" format="ascii">
               0 0 0 0 0 0 0 0 0 0 0 0 0 0 0 0 0 0 0 0 0 0 0 0 0 
            </DataArray>
            <DataArray type="Float64" Name="Displacement" NumberOfComponents="3" format="ascii">
               0.00157408 0.00198851 -0.0284613  0.00105906 0.000652013 -0.0269073  0.000658158 -1.46337e-05 -0.0250926  0.000478916 -0.000430977 -0.0269873  0.000134512 -0.000909776 -0.0284786  0.000182567 0.00146941 -0.0269146  -0.000364052 9.85706e-05 -0.0225712  -0.000953992 -0.00036581 -0.0186947  -0.00136262 -0.000855963 -0.023065  -0.00166718 -0.00159362 -0.0266768  -0.000450869 0.00106835 -0.0250895  -0.000799452 -0.000508092 -0.0186899  -0.00114894 -0.000722882 -0.0123768  -0.00157779 -0.00124801 -0.0187843  -0.00189011 -0.00230786 -0.0250518  -0.000902019 0.000888582 -0.0269741  -0.00132136 -0.000928047 -0.0230563  -0.00170735 -0.00115336 -0.0187802  -0.00225963 -0.00180264 -0.0227295  -0.00278428 -0.00295425 -0.0268617  -0.00143553 0.00054106 -0.0284598  -0.00211228 -0.001234 -0.0266674  -0.0028198 -0.001463 -0.0250474  -0.00346269 -0.00232826 -0.0268629  -0.00400599 -0.00349998 -0.0283039  
            </DataArray>
            <DataArray type="Float64" Name="Velocity" NumberOfComponents="3" format="ascii">
               -0.0015076 -0.00138666 -0.0803175  -0.00281436 0.00196014 -0.0735981  -0.00214725 0.00240478 -0.0670072  -0.000439147 0.0010601 -0.0740907  -0.000832358 0.00398709 -0.0806441  0.00184101 -0.00270542 -0.0736276  -6.78389e-05 4.78854e-05 -0.0580057  -0.00049699 0.00044944 -0.0428688  -0.000334303 -0.00051713 -0.0584496  -0.00154538 0.00248506 -0.073748  0.00231891 -0.00203832 -0.0670332  0.000355584 -0.000381348 -0.0428668  0.000325105 0.000432876 -0.0189221  -0.000121406 -0.000166991 -0.0429869  -0.00206202 0.00243493 -0.0669892  0.000960371 -0.00031886 -0.0741064  -0.000619851 -0.000212786 -0.0584416  -0.000284657 -7.70005e-06 -0.0429848  -0.000588213 -0.000463314 -0.0582356  -0.00244758 0.00224454 -0.0735235  0.00385757 -0.000712007 -0.0806953  0.00235799 -0.00141613 -0.073768  0.00229208 -0.00194052 -0.0670156  0.00208841 -0.00232441 -0.0735501  0.00070569 0.000856975 -0.0800737  
            </DataArray>
            <DataArray type="Float64" Name="Traction" NumberOfComponents="3" format="ascii">
               0.0134607 0.0146286 0.747126  0.00562132 -0.0102634 0.747126  -0.00329492 -0.037629 0.747126  -0.0343732 -0.00448551 0.747126  -0.0381933 0.0202648 0.747126  -0.00993034 0.00715019 0.747126  -0.00249701 -0.00124134 0.747126  0.0258963 -0.022889 0.747126  -0.00846237 0.00102993 0.747126  -0.00355694 0.0207349 0.747126  -0.0364517 -0.00223298 0.747126  -0.0245025 0.0267915 0.747126  0.0418902 0.043174 0.747126  0.0142308 0.0233141 0.747126  0.0312129 0.0164165 0.747126  -0.00349754 -0.0338755 0.747126  0.000502491 -0.00782697 0.747126  0.022557 0.0153305 0.747126  -0.00546979 -0.00443134 0.747126  0.00821505 -0.0137865 0.747126  0.0214508 -0.0382541 0.747126  0.0209461 -0.00262308 0.747126  0.0161429 0.0329627 0.747126  -0.0146049 0.009486 0.747126  -0.0129284 -0.0118925 0.747126  
            </DataArray>
         </PointData> 
      </Piece>
   </UnstructuredGrid> 
</VTKFile>
