<?xml version="1.0"?>
<VTKFile type="UnstructuredGrid" version="0.1" byte_order="LittleEndian">
   <UnstructuredGrid>
      <Piece NumberOfPoints="25" NumberOfCells="0" > 
         <Points> 
            <DataArray type="Float64" Name="Position" NumberOfComponents="3" format="ascii"> 
               0  0  20  
               0.75  0  20  
               1.5  0  20  
               2.25  0  20  
               3  0  20  
               0  0.75  20  
               0.75  0.75  20  
               1.5  0.75  20  
               2.25  0.75  20  
               3  0.75  20  
               0  1.5  20  
               0.75  1.5  20  
               1.5  1.5  20  
               2.25  1.5  20  
               3  1.5  20  
               0  2.25  20  
               0.75  2.25  20  
               1.5  2.25  20  
               2.25  2.25  20  
               3  2.25  20  
               0  3  20  
               0.75  3  20  
               1.5  3  20  
               2.25  3  20  
               3  3  20  
            </DataArray>
         </Points> 

         <Cells>
            <DataArray type="Int32" Name="connectivity" NumberOfComponents="1" format="ascii">
               
            </DataArray> 
            <DataArray type="Int32" Name="offsets" NumberOfComponents="1" format="ascii">
               
            </DataArray>
            <DataArray type="UInt8"  Name="types" NumberOfComponents="1" format="ascii">
               
            </DataArray>
         </Cells>
         <PointData Scalars="Rank " Vectors="Displacement Velocity Traction ">
            <DataArray type="UInt32" Name="Rank" NumberOfComponents="1" format="ascii">
               0 0 0 0 0 0 0 0 0 0 0 0 0 0 0 0 0 0 0 0 0 0 0 0 0 
            </DataArray>
            <DataArray type="Float64" Name="Displacement" NumberOfComponents="3" format="ascii">
               0 0 0  0 0 0  0 0 0  0 0 0  0 0 0  0 0 0  0 0 0  0 0 0  0 0 0  0 0 0  0 0 0  0 0 0  0 0 0  0 0 0  0 0 0  0 0 0  0 0 0  0 0 0  0 0 0  0 0 0  0 0 0  0 0 0  0 0 0  0 0 0  0 0 0  
            </DataArray>
            <DataArray type="Float64" Name="Velocity" NumberOfComponents="3" format="ascii">
               0 0 0  0 0 0  0 0 0  0 0 0  0 0 0  0 0 0  0 0 0  0 0 0  0 0 0  0 0 0  0 0 0  0 0 0  0 0 0  0 0 0  0 0 0  0 0 0  0 0 0  0 0 0  0 0 0  0 0 0  0 0 0  0 0 0  0 0 0  0 0 0  0 0 0  
            </DataArray>
            <DataArray type="Float64" Name="Traction" NumberOfComponents="3" format="ascii">
               -0.000307259 -0.00028709 -0.00218052  -0.000113253 -0.000462704 -0.00218052  8.70993e-05 -0.000568974 -0.00218052  9.45857e-05 -0.000387413 -0.00218052  0.000254887 -0.00038285 -0.00218052  -0.000476724 -9.78817e-05 -0.00218052  -0.00019464 -0.000186013 -0.00218052  0.000143198 -0.000303143 -0.00218052  0.000180532 -0.000194233 -0.00218052  0.000352392 -0.000162726 -0.00218052  -0.000586837 9.20552e-05 -0.00218052  -0.000313029 0.000139964 -0.00218052  0.000121868 0.000119585 -0.00218052  0.000282796 3.41664e-05 -0.00218052  0.000539945 -1.06811e-05 -0.00218052  -0.000396083 0.000117106 -0.00218052  -0.000194849 0.000191079 -0.00218052  3.94918e-05 0.00028811 -0.00218052  0.000178404 0.000184017 -0.00218052  0.000445592 9.31417e-05 -0.00218052  -0.000391835 0.000290616 -0.00218052  -0.000163757 0.000377942 -0.00218052  -1.5306e-06 0.000556942 -0.00218052  9.43643e-05 0.00046106 -0.00218052  0.000272801 0.000280834 -0.00218052  
            </DataArray>
         </PointData> 
      </Piece>
   </UnstructuredGrid> 
</VTKFile>
