<?xml version="1.0"?>
<VTKFile type="UnstructuredGrid" version="0.1" byte_order="LittleEndian">
   <UnstructuredGrid>
      <Piece NumberOfPoints="25" NumberOfCells="0" > 
         <Points> 
            <DataArray type="Float64" Name="Position" NumberOfComponents="3" format="ascii"> 
               0  0  15  
               0.75  0  15  
               1.5  0  15  
               2.25  0  15  
               3  0  15  
               0  0.75  15  
               0.75  0.75  15  
               1.5  0.75  15  
               2.25  0.75  15  
               3  0.75  15  
               0  1.5  15  
               0.75  1.5  15  
               1.5  1.5  15  
               2.25  1.5  15  
               3  1.5  15  
               0  2.25  15  
               0.75  2.25  15  
               1.5  2.25  15  
               2.25  2.25  15  
               3  2.25  15  
               0  3  15  
               0.75  3  15  
               1.5  3  15  
               2.25  3  15  
               3  3  15  
            </DataArray>
         </Points> 

         <Cells>
            <DataArray type="Int32" Name="connectivity" NumberOfComponents="1" format="ascii">
               
            </DataArray> 
            <DataArray type="Int32" Name="offsets" NumberOfComponents="1" format="ascii">
               
            </DataArray>
            <DataArray type="UInt8"  Name="types" NumberOfComponents="1" format="ascii">
               
            </DataArray>
         </Cells>
         <PointData Scalars="Rank " Vectors="Displacement Velocity Traction ">
            <DataArray type="UInt32" Name="Rank" NumberOfComponents="1" format="ascii">
               0 0 0 0 0 0 0 0 0 0 0 0 0 0 0 0 0 0 0 0 0 0 0 0 0 
            </DataArray>
            <DataArray type="Float64" Name="Displacement" NumberOfComponents="3" format="ascii">
               0.00178295 0.00202268 -0.0042488  0.00162529 0.000176331 -0.00423974  0.00115914 -0.000466798 -0.00409499  0.000647146 -0.000479103 -0.00426974  0.000439297 -0.00151682 -0.00428056  -0.000138666 0.00186393 -0.00422836  -0.000178827 0.000131205 -0.00390303  -0.000541808 -0.000319903 -0.0036347  -0.000877753 -0.000492013 -0.00405454  -0.000870692 -0.00176717 -0.00418464  -0.000762671 0.00140376 -0.00408039  -0.0006141 -0.000247051 -0.00363368  -0.000835825 -0.000551821 -0.00312049  -0.00105471 -0.000851418 -0.00365511  -0.00090182 -0.00232767 -0.00408748  -0.000805615 0.000895435 -0.00425575  -0.000812301 -0.00059489 -0.00405458  -0.00115883 -0.000774992 -0.00365465  -0.00152076 -0.00122277 -0.00394093  -0.00156338 -0.00279103 -0.00423727  -0.00188356 0.000685887 -0.00424789  -0.00212498 -0.000593293 -0.00417141  -0.00266834 -0.000626465 -0.00407328  -0.00311777 -0.00127129 -0.00422386  -0.00326436 -0.00294212 -0.00422788  
            </DataArray>
            <DataArray type="Float64" Name="Velocity" NumberOfComponents="3" format="ascii">
               0.000366309 0.000526693 -0.00445488  0.000284439 4.35303e-05 -0.00438428  0.000158537 -0.000175461 -0.00421339  5.44079e-05 -0.000208976 -0.00441169  -1.3158e-05 -0.000436352 -0.00445853  -0.000102736 0.000443288 -0.00438591  -0.000168264 -2.40721e-05 -0.00396961  -0.000312295 -0.000181579 -0.00363144  -0.000429426 -0.00025252 -0.00411125  -0.000455204 -0.000556332 -0.00432968  -0.000310112 0.000311582 -0.00420857  -0.000313317 -0.000171162 -0.00362867  -0.000394915 -0.000264701 -0.00301653  -0.000484755 -0.000364467 -0.00365547  -0.000482174 -0.000744049 -0.00420355  -0.000347268 0.000201645 -0.00440193  -0.000390106 -0.000289026 -0.00410676  -0.000505107 -0.00035249 -0.00365324  -0.000641756 -0.000494608 -0.00401139  -0.000704711 -0.000907716 -0.0043794  -0.000588552 0.000132227 -0.00444122  -0.000709274 -0.000312342 -0.00432178  -0.000901169 -0.000344308 -0.00419773  -0.00107106 -0.00055172 -0.00437753  -0.00116193 -0.000995012 -0.00442169  
            </DataArray>
            <DataArray type="Float64" Name="Traction" NumberOfComponents="3" format="ascii">
               0 0 0  0 0 0  0 0 0  0 0 0  0 0 0  0 0 0  0 0 0  0 0 0  0 0 0  0 0 0  0 0 0  0 0 0  0 0 0  0 0 0  0 0 0  0 0 0  0 0 0  0 0 0  0 0 0  0 0 0  0 0 0  0 0 0  0 0 0  0 0 0  0 0 0  
            </DataArray>
         </PointData> 
      </Piece>
   </UnstructuredGrid> 
</VTKFile>
