<?xml version="1.0"?>
<VTKFile type="UnstructuredGrid" version="0.1" byte_order="LittleEndian">
   <UnstructuredGrid>
      <Piece NumberOfPoints="25" NumberOfCells="0" > 
         <Points> 
            <DataArray type="Float64" Name="Position" NumberOfComponents="3" format="ascii"> 
               0  0  15  
               0.75  0  15  
               1.5  0  15  
               2.25  0  15  
               3  0  15  
               0  0.75  15  
               0.75  0.75  15  
               1.5  0.75  15  
               2.25  0.75  15  
               3  0.75  15  
               0  1.5  15  
               0.75  1.5  15  
               1.5  1.5  15  
               2.25  1.5  15  
               3  1.5  15  
               0  2.25  15  
               0.75  2.25  15  
               1.5  2.25  15  
               2.25  2.25  15  
               3  2.25  15  
               0  3  15  
               0.75  3  15  
               1.5  3  15  
               2.25  3  15  
               3  3  15  
            </DataArray>
         </Points> 

         <Cells>
            <DataArray type="Int32" Name="connectivity" NumberOfComponents="1" format="ascii">
               
            </DataArray> 
            <DataArray type="Int32" Name="offsets" NumberOfComponents="1" format="ascii">
               
            </DataArray>
            <DataArray type="UInt8"  Name="types" NumberOfComponents="1" format="ascii">
               
            </DataArray>
         </Cells>
         <PointData Scalars="Rank " Vectors="Displacement Velocity Traction ">
            <DataArray type="UInt32" Name="Rank" NumberOfComponents="1" format="ascii">
               0 0 0 0 0 0 0 0 0 0 0 0 0 0 0 0 0 0 0 0 0 0 0 0 0 
            </DataArray>
            <DataArray type="Float64" Name="Displacement" NumberOfComponents="3" format="ascii">
               0.00037235 0.000268157 -6.38726e-05  0.000360498 6.06992e-05 -5.75787e-05  0.000310569 2.52043e-05 -5.15549e-05  0.000252468 -1.40785e-07 -5.54366e-05  0.000232501 -0.000123528 -6.20044e-05  0.000112065 0.000258643 -5.84741e-05  0.000115147 6.29873e-05 -4.4277e-05  0.000101007 3.3035e-05 -3.4475e-05  9.09421e-05 -4.76487e-06 -4.46853e-05  9.88746e-05 -0.000142184 -5.46434e-05  5.30194e-05 0.000215431 -5.25444e-05  6.4303e-05 3.90236e-05 -3.44961e-05  3.83862e-05 -5.94419e-06 -1.99887e-05  1.93354e-05 -4.4089e-05 -3.48749e-05  3.49311e-05 -0.000192275 -5.168e-05  8.78656e-06 0.0001628 -5.60747e-05  1.33603e-05 1.21213e-05 -4.44723e-05  -2.22396e-06 -4.12419e-05 -3.4714e-05  -1.48068e-05 -7.95046e-05 -4.44089e-05  -1.13279e-05 -0.000228031 -5.72812e-05  -9.17664e-05 0.000144372 -6.34437e-05  -0.000104062 7.15575e-06 -5.50957e-05  -0.000135885 -4.29926e-05 -5.19736e-05  -0.000152412 -8.93548e-05 -5.77513e-05  -0.00015069 -0.000232821 -6.29408e-05  
            </DataArray>
            <DataArray type="Float64" Name="Velocity" NumberOfComponents="3" format="ascii">
               0.000223661 0.00022103 -0.000111882  0.000211716 3.91383e-05 -0.000105257  0.000165883 -1.16175e-05 -9.72839e-05  0.000111901 -2.70037e-05 -0.000103216  9.13883e-05 -0.000140778 -0.000108919  2.92342e-05 0.000208755 -0.000106109  2.99083e-05 3.8883e-05 -8.78493e-05  3.02558e-06 3.61301e-06 -7.59465e-05  -2.22969e-05 -2.55631e-05 -9.10229e-05  -1.94852e-05 -0.000159255 -0.000100137  -2.81952e-05 0.000164591 -9.86884e-05  -1.2501e-05 8.61479e-06 -7.61542e-05  -3.33248e-05 -2.14262e-05 -5.61398e-05  -5.09441e-05 -5.94137e-05 -7.64657e-05  -3.33357e-05 -0.000208484 -9.58292e-05  -4.50378e-05 0.000112662 -0.000104592  -4.21178e-05 -2.04548e-05 -9.09445e-05  -6.99277e-05 -4.43724e-05 -7.64138e-05  -9.68226e-05 -9.42972e-05 -8.85087e-05  -9.50933e-05 -0.000250601 -0.000103198  -0.000145126 9.30458e-05 -0.000111776  -0.000161749 -2.03407e-05 -0.000101023  -0.000204673 -3.21992e-05 -9.68958e-05  -0.000238734 -9.83452e-05 -0.000104508  -0.000246479 -0.000262536 -0.000108512  
            </DataArray>
            <DataArray type="Float64" Name="Traction" NumberOfComponents="3" format="ascii">
               0 0 0  0 0 0  0 0 0  0 0 0  0 0 0  0 0 0  0 0 0  0 0 0  0 0 0  0 0 0  0 0 0  0 0 0  0 0 0  0 0 0  0 0 0  0 0 0  0 0 0  0 0 0  0 0 0  0 0 0  0 0 0  0 0 0  0 0 0  0 0 0  0 0 0  
            </DataArray>
         </PointData> 
      </Piece>
   </UnstructuredGrid> 
</VTKFile>
