<?xml version="1.0"?>
<VTKFile type="UnstructuredGrid" version="0.1" byte_order="LittleEndian">
   <UnstructuredGrid>
      <Piece NumberOfPoints="25" NumberOfCells="0" > 
         <Points> 
            <DataArray type="Float64" Name="Position" NumberOfComponents="3" format="ascii"> 
               0  0  20  
               0.75  0  20  
               1.5  0  20  
               2.25  0  20  
               3  0  20  
               0  0.75  20  
               0.75  0.75  20  
               1.5  0.75  20  
               2.25  0.75  20  
               3  0.75  20  
               0  1.5  20  
               0.75  1.5  20  
               1.5  1.5  20  
               2.25  1.5  20  
               3  1.5  20  
               0  2.25  20  
               0.75  2.25  20  
               1.5  2.25  20  
               2.25  2.25  20  
               3  2.25  20  
               0  3  20  
               0.75  3  20  
               1.5  3  20  
               2.25  3  20  
               3  3  20  
            </DataArray>
         </Points> 

         <Cells>
            <DataArray type="Int32" Name="connectivity" NumberOfComponents="1" format="ascii">
               
            </DataArray> 
            <DataArray type="Int32" Name="offsets" NumberOfComponents="1" format="ascii">
               
            </DataArray>
            <DataArray type="UInt8"  Name="types" NumberOfComponents="1" format="ascii">
               
            </DataArray>
         </Cells>
         <PointData Scalars="Rank " Vectors="Displacement Velocity Traction ">
            <DataArray type="UInt32" Name="Rank" NumberOfComponents="1" format="ascii">
               0 0 0 0 0 0 0 0 0 0 0 0 0 0 0 0 0 0 0 0 0 0 0 0 0 
            </DataArray>
            <DataArray type="Float64" Name="Displacement" NumberOfComponents="3" format="ascii">
               0.00130831 0.00130237 -0.00593119  8.59598e-05 0.00218674 -0.00588284  -0.00063085 0.00260903 -0.0056672  -0.000611628 0.00189339 -0.00591827  -0.00140806 0.00229589 -0.00596042  0.00217433 7.86022e-05 -0.00587333  0.000665832 0.000673808 -0.00536869  -0.000207798 0.00106293 -0.00495903  -0.000678202 0.000708034 -0.00557038  -0.00183154 0.00116266 -0.00580467  0.00259173 -0.000630806 -0.00565247  0.00105118 -0.000208803 -0.00495707  -4.49338e-06 -2.734e-06 -0.00419406  -0.00100244 0.000159358 -0.00498859  -0.00252686 0.000634604 -0.00565657  0.00187119 -0.000592481 -0.00590218  0.000695065 -0.000669462 -0.00556872  0.000155695 -0.000991946 -0.00498735  -0.000638278 -0.000626 -0.00542296  -0.00213354 -0.000138262 -0.00587979  0.00227007 -0.00137851 -0.0059246  0.00114294 -0.00181136 -0.0057899  0.000630134 -0.00250855 -0.00564186  -0.000134635 -0.0021134 -0.00586715  -0.00134203 -0.00134319 -0.00590081  
            </DataArray>
            <DataArray type="Float64" Name="Velocity" NumberOfComponents="3" format="ascii">
               0.00160258 0.00158182 -0.00688875  9.85269e-05 0.00266102 -0.00668671  -0.000619475 0.00324883 -0.0063713  -0.000599438 0.00233406 -0.00670723  -0.00167933 0.00258298 -0.00687322  0.00267913 8.02133e-05 -0.00669449  0.000765947 0.000750589 -0.00590819  -0.00017523 0.0012018 -0.00527519  -0.000699056 0.000758564 -0.0060962  -0.00223547 0.00118337 -0.00659229  0.00326138 -0.000637641 -0.00637209  0.00121416 -0.000190616 -0.00527193  3.6893e-05 2.32484e-05 -0.00418004  -0.00109266 0.000165793 -0.00530922  -0.00312296 0.000661798 -0.00635211  0.00233748 -0.000613484 -0.00670083  0.000766537 -0.000712333 -0.00608999  0.000177162 -0.00110375 -0.0053063  -0.0006781 -0.000687771 -0.0059668  -0.00256995 -0.000123905 -0.00667218  0.00258451 -0.00168525 -0.00686584  0.00118996 -0.002245 -0.00658785  0.000671609 -0.00313252 -0.00635133  -0.000109625 -0.002577 -0.00667618  -0.00158046 -0.00159703 -0.00683168  
            </DataArray>
            <DataArray type="Float64" Name="Traction" NumberOfComponents="3" format="ascii">
               -0.0076209 -0.00770335 -0.0869704  -0.00158125 -0.0151009 -0.0869704  0.0048719 -0.0179102 -0.0869704  0.00375201 -0.0115553 -0.0869704  0.00723393 -0.0128223 -0.0869704  -0.0149293 -0.00163275 -0.0869704  -0.00595271 -0.00606147 -0.0869704  0.00521268 -0.00953634 -0.0869704  0.00590944 -0.00608728 -0.0869704  0.0105065 -0.00641281 -0.0869704  -0.0177255 0.00485281 -0.0869704  -0.00943607 0.0052181 -0.0869704  0.00437717 0.00439115 -0.0869704  0.0092545 0.00141975 -0.0869704  0.0172034 -0.00112862 -0.0869704  -0.0113479 0.00353267 -0.0869704  -0.0060031 0.00579202 -0.0869704  0.00139316 0.00915193 -0.0869704  0.00590593 0.0058237 -0.0869704  0.0144538 0.002094 -0.0869704  -0.0125634 0.00686465 -0.0869704  -0.00629468 0.0102564 -0.0869704  -0.00116519 0.0169926 -0.0869704  0.00206615 0.0142688 -0.0869704  0.00786248 0.00782209 -0.0869704  
            </DataArray>
         </PointData> 
      </Piece>
   </UnstructuredGrid> 
</VTKFile>
