<?xml version="1.0"?>
<VTKFile type="UnstructuredGrid" version="0.1" byte_order="LittleEndian">
   <UnstructuredGrid>
      <Piece NumberOfPoints="25" NumberOfCells="0" > 
         <Points> 
            <DataArray type="Float64" Name="Position" NumberOfComponents="3" format="ascii"> 
               0  0  20  
               0.75  0  20  
               1.5  0  20  
               2.25  0  20  
               3  0  20  
               0  0.75  20  
               0.75  0.75  20  
               1.5  0.75  20  
               2.25  0.75  20  
               3  0.75  20  
               0  1.5  20  
               0.75  1.5  20  
               1.5  1.5  20  
               2.25  1.5  20  
               3  1.5  20  
               0  2.25  20  
               0.75  2.25  20  
               1.5  2.25  20  
               2.25  2.25  20  
               3  2.25  20  
               0  3  20  
               0.75  3  20  
               1.5  3  20  
               2.25  3  20  
               3  3  20  
            </DataArray>
         </Points> 

         <Cells>
            <DataArray type="Int32" Name="connectivity" NumberOfComponents="1" format="ascii">
               
            </DataArray> 
            <DataArray type="Int32" Name="offsets" NumberOfComponents="1" format="ascii">
               
            </DataArray>
            <DataArray type="UInt8"  Name="types" NumberOfComponents="1" format="ascii">
               
            </DataArray>
         </Cells>
         <PointData Scalars="Rank " Vectors="Displacement Velocity Traction ">
            <DataArray type="UInt32" Name="Rank" NumberOfComponents="1" format="ascii">
               0 0 0 0 0 0 0 0 0 0 0 0 0 0 0 0 0 0 0 0 0 0 0 0 0 
            </DataArray>
            <DataArray type="Float64" Name="Displacement" NumberOfComponents="3" format="ascii">
               0 0 0  0 0 0  0 0 0  0 0 0  0 0 0  0 0 0  0 0 0  0 0 0  0 0 0  0 0 0  0 0 0  0 0 0  0 0 0  0 0 0  0 0 0  0 0 0  0 0 0  0 0 0  0 0 0  0 0 0  0 0 0  0 0 0  0 0 0  0 0 0  0 0 0  
            </DataArray>
            <DataArray type="Float64" Name="Velocity" NumberOfComponents="3" format="ascii">
               0 0 0  0 0 0  0 0 0  0 0 0  0 0 0  0 0 0  0 0 0  0 0 0  0 0 0  0 0 0  0 0 0  0 0 0  0 0 0  0 0 0  0 0 0  0 0 0  0 0 0  0 0 0  0 0 0  0 0 0  0 0 0  0 0 0  0 0 0  0 0 0  0 0 0  
            </DataArray>
            <DataArray type="Float64" Name="Traction" NumberOfComponents="3" format="ascii">
               2.74359e-06 2.14684e-06 -8.59481e-05  -1.33999e-05 2.31816e-05 -8.59481e-05  -1.758e-05 8.09211e-06 -8.59481e-05  -1.52448e-05 7.60044e-06 -8.59481e-05  -2.00309e-05 3.40866e-05 -8.59481e-05  2.85092e-05 -1.43904e-05 -8.59481e-05  1.27795e-05 7.67595e-06 -8.59481e-05  2.09444e-06 5.44582e-06 -8.59481e-05  -2.47338e-06 6.44565e-06 -8.59481e-05  -3.78892e-06 2.27353e-05 -8.59481e-05  1.2061e-05 -2.00856e-05 -8.59481e-05  8.69426e-06 -1.52801e-06 -8.59481e-05  3.34389e-06 1.48345e-06 -8.59481e-05  7.66101e-07 4.37957e-06 -8.59481e-05  1.14024e-06 1.78754e-05 -8.59481e-05  1.55823e-05 -1.96901e-05 -8.59481e-05  1.16598e-05 -5.45142e-06 -8.59481e-05  5.40445e-06 -3.09027e-06 -8.59481e-05  -2.58588e-06 -4.7843e-06 -8.59481e-05  -9.95821e-06 9.96026e-06 -8.59481e-05  4.17512e-05 -2.54648e-05 -8.59481e-05  2.75668e-05 -6.48089e-06 -8.59481e-05  1.82937e-05 -3.33183e-06 -8.59481e-05  1.05825e-05 -1.37719e-05 -8.59481e-05  -7.61613e-07 -3.6611e-06 -8.59481e-05  
            </DataArray>
         </PointData> 
      </Piece>
   </UnstructuredGrid> 
</VTKFile>
