<?xml version="1.0"?>
<VTKFile type="UnstructuredGrid" version="0.1" byte_order="LittleEndian">
   <UnstructuredGrid>
      <Piece NumberOfPoints="25" NumberOfCells="0" > 
         <Points> 
            <DataArray type="Float64" Name="Position" NumberOfComponents="3" format="ascii"> 
               0  0  15  
               0.75  0  15  
               1.5  0  15  
               2.25  0  15  
               3  0  15  
               0  0.75  15  
               0.75  0.75  15  
               1.5  0.75  15  
               2.25  0.75  15  
               3  0.75  15  
               0  1.5  15  
               0.75  1.5  15  
               1.5  1.5  15  
               2.25  1.5  15  
               3  1.5  15  
               0  2.25  15  
               0.75  2.25  15  
               1.5  2.25  15  
               2.25  2.25  15  
               3  2.25  15  
               0  3  15  
               0.75  3  15  
               1.5  3  15  
               2.25  3  15  
               3  3  15  
            </DataArray>
         </Points> 

         <Cells>
            <DataArray type="Int32" Name="connectivity" NumberOfComponents="1" format="ascii">
               
            </DataArray> 
            <DataArray type="Int32" Name="offsets" NumberOfComponents="1" format="ascii">
               
            </DataArray>
            <DataArray type="UInt8"  Name="types" NumberOfComponents="1" format="ascii">
               
            </DataArray>
         </Cells>
         <PointData Scalars="Rank " Vectors="Displacement Velocity Traction ">
            <DataArray type="UInt32" Name="Rank" NumberOfComponents="1" format="ascii">
               0 0 0 0 0 0 0 0 0 0 0 0 0 0 0 0 0 0 0 0 0 0 0 0 0 
            </DataArray>
            <DataArray type="Float64" Name="Displacement" NumberOfComponents="3" format="ascii">
               5.11527e-10 5.49251e-10 -1.35373e-09  4.77671e-10 -9.74795e-11 -1.23886e-09  2.5064e-10 1.38442e-10 -1.12681e-09  7.34219e-11 -2.75662e-11 -1.23883e-09  9.13371e-11 -1.0337e-10 -1.35324e-09  -8.61996e-11 5.49402e-10 -1.23885e-09  -1.11131e-10 -1.30807e-10 -9.31469e-10  -5.22615e-11 1.79811e-10 -6.27849e-10  7.70424e-11 -5.51637e-12 -9.31433e-10  1.1478e-10 -5.32074e-11 -1.23881e-09  1.72186e-10 2.31855e-10 -1.12681e-09  2.04895e-10 -3.71981e-11 -6.27828e-10  -1.68933e-11 -9.93018e-12 -1.34371e-10  -3.0811e-10 1.1712e-10 -6.27855e-10  -3.59885e-10 -3.41902e-10 -1.12689e-09  -6.68292e-12 7.88166e-11 -1.23882e-09  -2.27071e-11 7.94942e-11 -9.31433e-10  1.17769e-10 -2.84215e-10 -6.27877e-10  1.52385e-10 1.05492e-10 -9.31481e-10  1.97949e-11 -4.81753e-10 -1.23888e-09  -1.6204e-10 7.01762e-11 -1.35323e-09  -6.26561e-11 8.00276e-11 -1.23884e-09  -4.52358e-10 -2.57301e-10 -1.12688e-09  -6.64339e-10 -2.96382e-11 -1.23891e-09  -4.17982e-10 -3.90538e-10 -1.35362e-09  
            </DataArray>
            <DataArray type="Float64" Name="Velocity" NumberOfComponents="3" format="ascii">
               6.45838e-09 7.05365e-09 -1.59682e-08  5.75955e-09 -1.27826e-09 -1.45229e-08  3.15603e-09 1.95238e-09 -1.31014e-08  1.10476e-09 -2.64657e-10 -1.45216e-08  8.91726e-10 -8.84295e-10 -1.59605e-08  -1.1091e-09 6.63524e-09 -1.45228e-08  -1.31627e-09 -1.551e-09 -1.06227e-08  -6.04947e-10 2.04317e-09 -6.75056e-09  9.03205e-10 -4.12204e-11 -1.0622e-08  1.35591e-09 -8.87167e-10 -1.45216e-08  2.41278e-09 2.98046e-09 -1.31013e-08  2.37379e-09 -4.37165e-10 -6.75033e-09  -2.60493e-10 -1.23154e-10 -4.42036e-10  -3.66097e-09 1.33166e-09 -6.75088e-09  -4.58306e-09 -4.16412e-09 -1.31028e-08  -1.05409e-10 1.13878e-09 -1.45214e-08  -2.05694e-10 9.21573e-10 -1.0622e-08  1.36149e-09 -3.35127e-09 -6.75116e-09  1.81304e-09 1.28038e-09 -1.0623e-08  4.51664e-10 -5.66726e-09 -1.45232e-08  -1.55839e-09 6.74809e-10 -1.59603e-08  -1.07151e-09 1.01068e-09 -1.45219e-08  -5.54062e-09 -3.37833e-09 -1.31028e-08  -7.94447e-09 -2.57673e-10 -1.45236e-08  -5.82367e-09 -5.25547e-09 -1.59668e-08  
            </DataArray>
            <DataArray type="Float64" Name="Traction" NumberOfComponents="3" format="ascii">
               0 0 0  0 0 0  0 0 0  0 0 0  0 0 0  0 0 0  0 0 0  0 0 0  0 0 0  0 0 0  0 0 0  0 0 0  0 0 0  0 0 0  0 0 0  0 0 0  0 0 0  0 0 0  0 0 0  0 0 0  0 0 0  0 0 0  0 0 0  0 0 0  0 0 0  
            </DataArray>
         </PointData> 
      </Piece>
   </UnstructuredGrid> 
</VTKFile>
