<?xml version="1.0"?>
<VTKFile type="UnstructuredGrid" version="0.1" byte_order="LittleEndian">
   <UnstructuredGrid>
      <Piece NumberOfPoints="25" NumberOfCells="0" > 
         <Points> 
            <DataArray type="Float64" Name="Position" NumberOfComponents="3" format="ascii"> 
               0  0  15  
               0.75  0  15  
               1.5  0  15  
               2.25  0  15  
               3  0  15  
               0  0.75  15  
               0.75  0.75  15  
               1.5  0.75  15  
               2.25  0.75  15  
               3  0.75  15  
               0  1.5  15  
               0.75  1.5  15  
               1.5  1.5  15  
               2.25  1.5  15  
               3  1.5  15  
               0  2.25  15  
               0.75  2.25  15  
               1.5  2.25  15  
               2.25  2.25  15  
               3  2.25  15  
               0  3  15  
               0.75  3  15  
               1.5  3  15  
               2.25  3  15  
               3  3  15  
            </DataArray>
         </Points> 

         <Cells>
            <DataArray type="Int32" Name="connectivity" NumberOfComponents="1" format="ascii">
               
            </DataArray> 
            <DataArray type="Int32" Name="offsets" NumberOfComponents="1" format="ascii">
               
            </DataArray>
            <DataArray type="UInt8"  Name="types" NumberOfComponents="1" format="ascii">
               
            </DataArray>
         </Cells>
         <PointData Scalars="Rank " Vectors="Displacement Velocity Traction ">
            <DataArray type="UInt32" Name="Rank" NumberOfComponents="1" format="ascii">
               0 0 0 0 0 0 0 0 0 0 0 0 0 0 0 0 0 0 0 0 0 0 0 0 0 
            </DataArray>
            <DataArray type="Float64" Name="Displacement" NumberOfComponents="3" format="ascii">
               2.31351e-06 2.20937e-06 -2.1526e-06  2.24849e-06 -1.21206e-07 -2.03316e-06  1.93311e-06 -2.71265e-07 -1.8719e-06  1.60017e-06 5.59993e-08 -1.98714e-06  1.50526e-06 -1.83652e-07 -2.16083e-06  -5.65958e-08 1.99193e-06 -2.03386e-06  1.18795e-08 -1.22833e-07 -1.68849e-06  -2.49252e-08 -2.10135e-07 -1.45503e-06  -8.58235e-08 1.10443e-07 -1.73325e-06  -9.2501e-08 -3.39987e-07 -1.95911e-06  4.81598e-07 1.51748e-06 -1.87119e-06  3.88423e-07 -2.88481e-08 -1.45493e-06  -1.5266e-07 -3.03329e-07 -1.0923e-06  -7.23374e-07 2.64193e-07 -1.46443e-06  -9.97645e-07 -5.6549e-07 -1.87204e-06  3.39026e-07 1.14735e-06 -1.98481e-06  3.13856e-07 9.41846e-08 -1.73371e-06  2.8096e-07 -5.4718e-07 -1.46362e-06  2.89559e-07 3.15013e-07 -1.69979e-06  2.01481e-07 -4.67462e-07 -2.02906e-06  -1.21675e-06 9.77264e-07 -2.15885e-06  -1.39604e-06 1.79898e-07 -1.96106e-06  -1.98567e-06 -5.62719e-07 -1.87429e-06  -2.25537e-06 2.02775e-07 -2.03161e-06  -2.10651e-06 -4.09546e-07 -2.15358e-06  
            </DataArray>
            <DataArray type="Float64" Name="Velocity" NumberOfComponents="3" format="ascii">
               4.14463e-06 2.96596e-06 -2.43654e-06  4.07244e-06 -7.30492e-08 -2.42923e-06  3.50763e-06 -7.61253e-07 -2.31484e-06  2.92557e-06 1.08644e-07 -2.38831e-06  2.78363e-06 6.20767e-08 -2.43921e-06  1.47618e-07 2.68647e-06 -2.43027e-06  2.54467e-07 -4.05565e-08 -2.21778e-06  1.15826e-07 -5.39618e-07 -2.12123e-06  -1.46784e-07 2.33222e-07 -2.3188e-06  -2.08513e-07 -1.6693e-07 -2.31275e-06  7.28771e-07 2.18755e-06 -2.31219e-06  6.18827e-07 3.22305e-08 -2.12112e-06  -1.46897e-07 -5.91513e-07 -1.9192e-06  -1.04281e-06 4.53501e-07 -2.13679e-06  -1.46791e-06 -4.54382e-07 -2.30212e-06  7.132e-07 1.75324e-06 -2.38183e-06  6.55864e-07 1.36419e-07 -2.31959e-06  4.95839e-07 -8.28174e-07 -2.13419e-06  4.38729e-07 5.67683e-07 -2.24081e-06  2.94545e-07 -1.61703e-07 -2.41736e-06  -2.01354e-06 1.5312e-06 -2.43496e-06  -2.23871e-06 2.50872e-07 -2.31821e-06  -2.93443e-06 -8.41157e-07 -2.30754e-06  -3.05407e-06 4.08997e-07 -2.4239e-06  -2.73426e-06 5.20834e-08 -2.42952e-06  
            </DataArray>
            <DataArray type="Float64" Name="Traction" NumberOfComponents="3" format="ascii">
               8.06524e-05 7.89463e-05 -0.000166846  -2.923e-05 5.98557e-05 -0.000166846  -1.48594e-05 -4.12289e-06 -0.000166846  5.96496e-06 3.75276e-05 -0.000166846  -8.27678e-05 9.54137e-05 -0.000166846  6.47247e-05 -2.66434e-05 -0.000166846  -1.71997e-07 -7.74508e-06 -0.000166846  -5.56323e-07 -7.07668e-06 -0.000166846  6.07954e-06 -1.47372e-06 -0.000166846  -0.000100384 1.19365e-05 -0.000166846  6.61328e-05 -7.24124e-06 -0.000166846  1.99625e-06 -3.89328e-06 -0.000166846  -5.98201e-07 -1.07445e-06 -0.000166846  1.91295e-05 3.03877e-06 -0.000166846  -0.000112077 8.1925e-06 -0.000166846  7.69229e-05 1.02795e-05 -0.000166846  2.17626e-06 9.76432e-06 -0.000166846  5.8249e-06 1.2868e-05 -0.000166846  8.86917e-06 8.58671e-06 -0.000166846  -6.34484e-05 -5.75813e-06 -0.000166846  7.89326e-05 -6.32557e-05 -0.000166846  5.71146e-06 -7.21442e-05 -0.000166846  1.03625e-05 -5.53647e-05 -0.000166846  1.0547e-05 -8.99839e-06 -0.000166846  1.06324e-05 -3.4547e-06 -0.000166846  
            </DataArray>
         </PointData> 
      </Piece>
   </UnstructuredGrid> 
</VTKFile>
