<?xml version="1.0"?>
<VTKFile type="UnstructuredGrid" version="0.1" byte_order="LittleEndian">
   <UnstructuredGrid>
      <Piece NumberOfPoints="25" NumberOfCells="0" > 
         <Points> 
            <DataArray type="Float64" Name="Position" NumberOfComponents="3" format="ascii"> 
               0  0  20  
               0.75  0  20  
               1.5  0  20  
               2.25  0  20  
               3  0  20  
               0  0.75  20  
               0.75  0.75  20  
               1.5  0.75  20  
               2.25  0.75  20  
               3  0.75  20  
               0  1.5  20  
               0.75  1.5  20  
               1.5  1.5  20  
               2.25  1.5  20  
               3  1.5  20  
               0  2.25  20  
               0.75  2.25  20  
               1.5  2.25  20  
               2.25  2.25  20  
               3  2.25  20  
               0  3  20  
               0.75  3  20  
               1.5  3  20  
               2.25  3  20  
               3  3  20  
            </DataArray>
         </Points> 

         <Cells>
            <DataArray type="Int32" Name="connectivity" NumberOfComponents="1" format="ascii">
               
            </DataArray> 
            <DataArray type="Int32" Name="offsets" NumberOfComponents="1" format="ascii">
               
            </DataArray>
            <DataArray type="UInt8"  Name="types" NumberOfComponents="1" format="ascii">
               
            </DataArray>
         </Cells>
         <PointData Scalars="Rank " Vectors="Displacement Velocity Traction ">
            <DataArray type="UInt32" Name="Rank" NumberOfComponents="1" format="ascii">
               0 0 0 0 0 0 0 0 0 0 0 0 0 0 0 0 0 0 0 0 0 0 0 0 0 
            </DataArray>
            <DataArray type="Float64" Name="Displacement" NumberOfComponents="3" format="ascii">
               0.00142865 0.00142124 -0.00644581  9.30338e-05 0.00238696 -0.00638134  -0.000676884 0.002854 -0.00614151  -0.000656093 0.00206917 -0.00641811  -0.00153449 0.00248909 -0.00647376  0.00237592 8.43833e-05 -0.00637244  0.000722977 0.000729806 -0.00580748  -0.00022071 0.00115281 -0.0053492  -0.00073019 0.000764405 -0.00602285  -0.00200005 0.00125033 -0.00629607  0.00283769 -0.000678157 -0.0061269  0.001142 -0.000222826 -0.00534701  -1.59827e-06 -8.34978e-07 -0.00450066  -0.00108405 0.000171644 -0.00538125  -0.00276239 0.000683779 -0.00612944  0.00204731 -0.000638044 -0.00640161  0.000752063 -0.000722449 -0.00602075  0.000168816 -0.0010744 -0.00537981  -0.000688831 -0.000677301 -0.00586604  -0.00232693 -0.000147243 -0.00637714  0.00246349 -0.00150548 -0.00643754  0.00123117 -0.00198065 -0.00628103  0.000680032 -0.00274486 -0.00611473  -0.000142604 -0.00230738 -0.00636485  -0.00146071 -0.00146305 -0.00641114  
            </DataArray>
            <DataArray type="Float64" Name="Velocity" NumberOfComponents="3" format="ascii">
               0.00181258 0.00179124 -0.00772103  0.000102967 0.00302002 -0.00746775  -0.000687763 0.00370106 -0.00709787  -0.000663521 0.00265351 -0.00748549  -0.0019078 0.00290118 -0.00770052  0.00304073 8.4396e-05 -0.00747709  0.000856389 0.000839218 -0.00655444  -0.000191734 0.00134943 -0.00580983  -0.000777393 0.000842381 -0.00675581  -0.00254561 0.00130676 -0.00736072  0.00371624 -0.000707071 -0.00710021  0.0013638 -0.000207948 -0.00580649  4.48928e-05 3.02268e-05 -0.00453582  -0.00122409 0.000183164 -0.00584673  -0.00355934 0.000734595 -0.00707593  0.00265927 -0.000680449 -0.00748014  0.000852075 -0.00079243 -0.00674923  0.000195488 -0.00123699 -0.00584366  -0.000757296 -0.00076876 -0.00661778  -0.00291741 -0.00013172 -0.00744994  0.00290538 -0.00191696 -0.00769611  0.00131574 -0.00255777 -0.00735736  0.000745324 -0.00357143 -0.00707659  -0.000117154 -0.00292694 -0.00745548  -0.00178765 -0.00180487 -0.0076563  
            </DataArray>
            <DataArray type="Float64" Name="Traction" NumberOfComponents="3" format="ascii">
               -0.00834135 -0.0084263 -0.0972709  -0.00170576 -0.0165399 -0.0972709  0.00529003 -0.0196854 -0.0972709  0.00409103 -0.0127167 -0.0972709  0.00797405 -0.0139603 -0.0972709  -0.0163668 -0.00176618 -0.0972709  -0.0065148 -0.00663047 -0.0972709  0.00567549 -0.0104352 -0.0972709  0.00646082 -0.00664018 -0.0972709  0.0115964 -0.00694245 -0.0972709  -0.0194971 0.00525794 -0.0972709  -0.0103282 0.00567053 -0.0972709  0.00483144 0.00483617 -0.0972709  0.0101362 0.00161126 -0.0972709  0.018926 -0.00120602 -0.0972709  -0.0125009 0.00386023 -0.0972709  -0.00654783 0.00633412 -0.0972709  0.00159392 0.0100252 -0.0972709  0.00646965 0.00637998 -0.0972709  0.0158443 0.00226738 -0.0972709  -0.0136917 0.00759296 -0.0972709  -0.00681601 0.0113376 -0.0972709  -0.00123259 0.0187081 -0.0972709  0.00224479 0.0156535 -0.0972709  0.00859905 0.00855775 -0.0972709  
            </DataArray>
         </PointData> 
      </Piece>
   </UnstructuredGrid> 
</VTKFile>
