<?xml version="1.0"?>
<VTKFile type="UnstructuredGrid" version="0.1" byte_order="LittleEndian">
   <UnstructuredGrid>
      <Piece NumberOfPoints="25" NumberOfCells="0" > 
         <Points> 
            <DataArray type="Float64" Name="Position" NumberOfComponents="3" format="ascii"> 
               0  0  20  
               0.75  0  20  
               1.5  0  20  
               2.25  0  20  
               3  0  20  
               0  0.75  20  
               0.75  0.75  20  
               1.5  0.75  20  
               2.25  0.75  20  
               3  0.75  20  
               0  1.5  20  
               0.75  1.5  20  
               1.5  1.5  20  
               2.25  1.5  20  
               3  1.5  20  
               0  2.25  20  
               0.75  2.25  20  
               1.5  2.25  20  
               2.25  2.25  20  
               3  2.25  20  
               0  3  20  
               0.75  3  20  
               1.5  3  20  
               2.25  3  20  
               3  3  20  
            </DataArray>
         </Points> 

         <Cells>
            <DataArray type="Int32" Name="connectivity" NumberOfComponents="1" format="ascii">
               
            </DataArray> 
            <DataArray type="Int32" Name="offsets" NumberOfComponents="1" format="ascii">
               
            </DataArray>
            <DataArray type="UInt8"  Name="types" NumberOfComponents="1" format="ascii">
               
            </DataArray>
         </Cells>
         <PointData Scalars="Rank " Vectors="Displacement Velocity Traction ">
            <DataArray type="UInt32" Name="Rank" NumberOfComponents="1" format="ascii">
               0 0 0 0 0 0 0 0 0 0 0 0 0 0 0 0 0 0 0 0 0 0 0 0 0 
            </DataArray>
            <DataArray type="Float64" Name="Displacement" NumberOfComponents="3" format="ascii">
               9.60025e-11 9.60022e-11 -3.06774e-10  6.48479e-12 1.5726e-10 -2.78276e-10  -7.01872e-14 2.19851e-10 -2.50705e-10  -6.55958e-12 1.5721e-10 -2.7827e-10  -9.60766e-11 9.61599e-11 -3.06761e-10  1.57262e-10 6.48566e-12 -2.78276e-10  2.41291e-11 2.41294e-11 -2.0259e-10  -2.57361e-14 4.41996e-11 -1.284e-10  -2.41114e-11 2.41025e-11 -2.02588e-10  -1.57204e-10 6.62652e-12 -2.78272e-10  2.1985e-10 -6.95869e-14 -2.50705e-10  4.41994e-11 -2.545e-14 -1.284e-10  2.36449e-14 2.35976e-14 -8.16286e-12  -4.41751e-11 2.66565e-14 -1.28401e-10  -2.1983e-10 8.27534e-14 -2.50707e-10  1.57209e-10 -6.55994e-12 -2.7827e-10  2.41028e-11 -2.41116e-11 -2.02588e-10  2.69369e-14 -4.41751e-11 -1.28401e-10  -2.41238e-11 -2.41229e-11 -2.02591e-10  -1.57258e-10 -6.49473e-12 -2.78276e-10  9.61604e-11 -9.60768e-11 -3.06761e-10  6.62642e-12 -1.57204e-10 -2.78272e-10  8.53322e-14 -2.19832e-10 -2.50708e-10  -6.49509e-12 -1.57261e-10 -2.78277e-10  -9.60027e-11 -9.60032e-11 -3.06772e-10  
            </DataArray>
            <DataArray type="Float64" Name="Velocity" NumberOfComponents="3" format="ascii">
               2.98759e-09 2.98758e-09 -9.59083e-09  1.58561e-10 4.93539e-09 -8.70581e-09  -4.82543e-12 6.90189e-09 -7.83774e-09  -1.63843e-10 4.93161e-09 -8.70535e-09  -2.9924e-09 2.99845e-09 -9.58988e-09  4.93544e-09 1.58582e-10 -8.70581e-09  7.28278e-10 7.28289e-10 -6.32254e-09  -1.65992e-12 1.33806e-09 -3.96655e-09  -7.27067e-10 7.26493e-10 -6.32236e-09  -4.93127e-09 1.68692e-10 -8.70546e-09  6.90186e-09 -4.80928e-12 -7.83774e-09  1.33806e-09 -1.65075e-12 -3.96656e-09  1.68958e-12 1.68793e-12 -1.33116e-10  -1.33626e-09 1.71245e-12 -3.96667e-09  -6.90056e-09 5.60296e-12 -7.83797e-09  4.9316e-09 -1.63855e-10 -8.70534e-09  7.265e-10 -7.27073e-10 -6.32236e-09  1.72164e-12 -1.33626e-09 -3.96668e-09  -7.2787e-10 -7.27844e-10 -6.32262e-09  -4.93528e-09 -1.59318e-10 -8.70585e-09  2.99847e-09 -2.99241e-09 -9.58987e-09  1.6869e-10 -4.93127e-09 -8.70547e-09  5.67944e-12 -6.90061e-09 -7.83799e-09  -1.59335e-10 -4.93539e-09 -8.70586e-09  -2.98755e-09 -2.98756e-09 -9.59068e-09  
            </DataArray>
            <DataArray type="Float64" Name="Traction" NumberOfComponents="3" format="ascii">
               -6.36546e-10 -6.38981e-10 -3.97699e-06  -2.13864e-10 -1.09074e-09 -3.97699e-06  1.12274e-10 -1.62522e-09 -3.97699e-06  1.61505e-10 -1.09614e-09 -3.97699e-06  5.7792e-10 -5.75754e-10 -3.97699e-06  -1.09203e-09 -2.20809e-10 -3.97699e-06  -4.6923e-10 -4.67139e-10 -3.97699e-06  3.73217e-10 -8.20463e-10 -3.97699e-06  4.72511e-10 -4.79357e-10 -3.97699e-06  1.08822e-09 -1.63915e-10 -3.97699e-06  -1.62877e-09 1.14502e-10 -3.97699e-06  -8.22923e-10 3.71634e-10 -3.97699e-06  5.98191e-10 5.97924e-10 -3.97699e-06  8.32628e-10 3.55569e-10 -3.97699e-06  1.64794e-09 1.68659e-10 -3.97699e-06  -1.09934e-09 1.60679e-10 -3.97699e-06  -4.77469e-10 4.72048e-10 -3.97699e-06  3.55687e-10 8.30226e-10 -3.97699e-06  4.65135e-10 4.69899e-10 -3.97699e-06  1.09958e-09 2.15382e-10 -3.97699e-06  -5.69967e-10 5.80097e-10 -3.97699e-06  -1.63543e-10 1.09177e-09 -3.97699e-06  1.79234e-10 1.637e-09 -3.97699e-06  2.32889e-10 1.10312e-09 -3.97699e-06  6.23431e-10 6.22222e-10 -3.97699e-06  
            </DataArray>
         </PointData> 
      </Piece>
   </UnstructuredGrid> 
</VTKFile>
