<?xml version="1.0"?>
<VTKFile type="UnstructuredGrid" version="0.1" byte_order="LittleEndian">
   <UnstructuredGrid>
      <Piece NumberOfPoints="25" NumberOfCells="0" > 
         <Points> 
            <DataArray type="Float64" Name="Position" NumberOfComponents="3" format="ascii"> 
               0  0  15  
               0.75  0  15  
               1.5  0  15  
               2.25  0  15  
               3  0  15  
               0  0.75  15  
               0.75  0.75  15  
               1.5  0.75  15  
               2.25  0.75  15  
               3  0.75  15  
               0  1.5  15  
               0.75  1.5  15  
               1.5  1.5  15  
               2.25  1.5  15  
               3  1.5  15  
               0  2.25  15  
               0.75  2.25  15  
               1.5  2.25  15  
               2.25  2.25  15  
               3  2.25  15  
               0  3  15  
               0.75  3  15  
               1.5  3  15  
               2.25  3  15  
               3  3  15  
            </DataArray>
         </Points> 

         <Cells>
            <DataArray type="Int32" Name="connectivity" NumberOfComponents="1" format="ascii">
               
            </DataArray> 
            <DataArray type="Int32" Name="offsets" NumberOfComponents="1" format="ascii">
               
            </DataArray>
            <DataArray type="UInt8"  Name="types" NumberOfComponents="1" format="ascii">
               
            </DataArray>
         </Cells>
         <PointData Scalars="Rank " Vectors="Displacement Velocity Traction ">
            <DataArray type="UInt32" Name="Rank" NumberOfComponents="1" format="ascii">
               0 0 0 0 0 0 0 0 0 0 0 0 0 0 0 0 0 0 0 0 0 0 0 0 0 
            </DataArray>
            <DataArray type="Float64" Name="Displacement" NumberOfComponents="3" format="ascii">
               0.00176811 0.00200142 -0.00407386  0.0016137 0.00017463 -0.00406744  0.00115264 -0.000459662 -0.00392932  0.000644897 -0.000470701 -0.00409634  0.000439768 -0.00149919 -0.00410545  -0.000134503 0.00184599 -0.00405601  -0.000172093 0.00013216 -0.00374681  -0.000529322 -0.000312615 -0.00349156  -0.000860581 -0.000481927 -0.00389273  -0.000852534 -0.00174476 -0.00401447  -0.000750141 0.00139113 -0.00391492  -0.000601534 -0.000240222 -0.00349065  -0.000820017 -0.000541229 -0.00300123  -0.00103534 -0.000836852 -0.00351103  -0.00088263 -0.00229773 -0.00392219  -0.000791671 0.00088729 -0.00408275  -0.0007967 -0.000583348 -0.00389295  -0.00113863 -0.000760918 -0.00351066  -0.0014951 -0.00120301 -0.00378307  -0.00153523 -0.00275454 -0.00406516  -0.00185982 0.000680537 -0.00407348  -0.00209643 -0.000580863 -0.00400157  -0.0026321 -0.0006128 -0.00390823  -0.00307473 -0.00124928 -0.00405183  -0.0032177 -0.00290216 -0.00405423  
            </DataArray>
            <DataArray type="Float64" Name="Velocity" NumberOfComponents="3" format="ascii">
               0.00037916 0.000539741 -0.00423521  0.000298728 4.07669e-05 -0.00417612  0.000169496 -0.000182851 -0.0040188  5.91876e-05 -0.000211129 -0.00420361  -9.11739e-06 -0.000448499 -0.00424102  -0.000106385 0.000457794 -0.00417705  -0.000168005 -2.29147e-05 -0.00379464  -0.000311782 -0.000182884 -0.00348437  -0.000429854 -0.000250876 -0.00393129  -0.000452819 -0.00056663 -0.00412517  -0.000318026 0.000322872 -0.0040134  -0.000315215 -0.000169824 -0.00348168  -0.000395735 -0.000264943 -0.00291558  -0.000484093 -0.000363912 -0.00350735  -0.000476143 -0.000755991 -0.00400997  -0.000350156 0.000206882 -0.00419355  -0.000389224 -0.000288548 -0.00392704  -0.000505315 -0.000351117 -0.00350522  -0.000642203 -0.00049419 -0.00383467  -0.000701614 -0.000920419 -0.00417227  -0.000602163 0.000136715 -0.00422275  -0.000720944 -0.000309023 -0.00411695  -0.000914282 -0.00033754 -0.00400364  -0.00108485 -0.000547748 -0.00416974  -0.00117376 -0.00100572 -0.00420473  
            </DataArray>
            <DataArray type="Float64" Name="Traction" NumberOfComponents="3" format="ascii">
               0.0375056 0.0387187 -0.0933884  0.0099622 0.0444561 -0.0933884  -0.00975901 0.0457267 -0.0933884  -0.0308108 0.0459202 -0.0933884  -0.0560717 0.0489319 -0.0933884  0.044923 0.0114981 -0.0933884  0.0172537 0.0185475 -0.0933884  -0.000634341 0.0186653 -0.0933884  -0.0234786 0.0189006 -0.0933884  -0.0498748 0.0249505 -0.0933884  0.0463 -0.0085891 -0.0933884  0.0169324 0.000470983 -0.0933884  -0.000624585 0.000617462 -0.0933884  -0.0234484 -0.000575216 -0.0933884  -0.0494897 0.00599995 -0.0933884  0.0463934 -0.0301466 -0.0933884  0.0178525 -0.0227208 -0.0933884  -0.00154147 -0.0225607 -0.0933884  -0.0236052 -0.0228514 -0.0933884  -0.0451089 -0.0171524 -0.0933884  0.0497153 -0.056467 -0.0933884  0.024394 -0.0490784 -0.0933884  0.00549609 -0.0480382 -0.0933884  -0.0176061 -0.0444627 -0.0933884  -0.0358849 -0.0353775 -0.0933884  
            </DataArray>
         </PointData> 
      </Piece>
   </UnstructuredGrid> 
</VTKFile>
