<?xml version="1.0"?>
<VTKFile type="UnstructuredGrid" version="0.1" byte_order="LittleEndian">
   <UnstructuredGrid>
      <Piece NumberOfPoints="25" NumberOfCells="0" > 
         <Points> 
            <DataArray type="Float64" Name="Position" NumberOfComponents="3" format="ascii"> 
               0  0  20  
               0.75  0  20  
               1.5  0  20  
               2.25  0  20  
               3  0  20  
               0  0.75  20  
               0.75  0.75  20  
               1.5  0.75  20  
               2.25  0.75  20  
               3  0.75  20  
               0  1.5  20  
               0.75  1.5  20  
               1.5  1.5  20  
               2.25  1.5  20  
               3  1.5  20  
               0  2.25  20  
               0.75  2.25  20  
               1.5  2.25  20  
               2.25  2.25  20  
               3  2.25  20  
               0  3  20  
               0.75  3  20  
               1.5  3  20  
               2.25  3  20  
               3  3  20  
            </DataArray>
         </Points> 

         <Cells>
            <DataArray type="Int32" Name="connectivity" NumberOfComponents="1" format="ascii">
               
            </DataArray> 
            <DataArray type="Int32" Name="offsets" NumberOfComponents="1" format="ascii">
               
            </DataArray>
            <DataArray type="UInt8"  Name="types" NumberOfComponents="1" format="ascii">
               
            </DataArray>
         </Cells>
         <PointData Scalars="Rank " Vectors="Displacement Velocity Traction ">
            <DataArray type="UInt32" Name="Rank" NumberOfComponents="1" format="ascii">
               0 0 0 0 0 0 0 0 0 0 0 0 0 0 0 0 0 0 0 0 0 0 0 0 0 
            </DataArray>
            <DataArray type="Float64" Name="Displacement" NumberOfComponents="3" format="ascii">
               0 0 0  0 0 0  0 0 0  0 0 0  0 0 0  0 0 0  0 0 0  0 0 0  0 0 0  0 0 0  0 0 0  0 0 0  0 0 0  0 0 0  0 0 0  0 0 0  0 0 0  0 0 0  0 0 0  0 0 0  0 0 0  0 0 0  0 0 0  0 0 0  0 0 0  
            </DataArray>
            <DataArray type="Float64" Name="Velocity" NumberOfComponents="3" format="ascii">
               0 0 0  0 0 0  0 0 0  0 0 0  0 0 0  0 0 0  0 0 0  0 0 0  0 0 0  0 0 0  0 0 0  0 0 0  0 0 0  0 0 0  0 0 0  0 0 0  0 0 0  0 0 0  0 0 0  0 0 0  0 0 0  0 0 0  0 0 0  0 0 0  0 0 0  
            </DataArray>
            <DataArray type="Float64" Name="Traction" NumberOfComponents="3" format="ascii">
               -4.94828e-07 -5.04124e-07 -1.37471e-05  -1.40046e-07 -8.5532e-07 -1.37471e-05  1.05817e-07 -1.19709e-06 -1.37471e-05  1.338e-07 -8.14026e-07 -1.37471e-05  4.86022e-07 -5.5054e-07 -1.37471e-05  -8.57453e-07 -1.47647e-07 -1.37471e-05  -3.40381e-07 -3.37807e-07 -1.37471e-05  2.35817e-07 -5.63483e-07 -1.37471e-05  3.29217e-07 -3.28041e-07 -1.37471e-05  8.0723e-07 -1.80904e-07 -1.37471e-05  -1.20535e-06 1.05747e-07 -1.37471e-05  -5.6973e-07 2.35234e-07 -1.37471e-05  3.26297e-07 3.24644e-07 -1.37471e-05  5.64843e-07 1.90471e-07 -1.37471e-05  1.20814e-06 5.89229e-08 -1.37471e-05  -8.15605e-07 1.35702e-07 -1.37471e-05  -3.29291e-07 3.27539e-07 -1.37471e-05  1.89613e-07 5.60764e-07 -1.37471e-05  3.31871e-07 3.34302e-07 -1.37471e-05  8.53648e-07 1.34539e-07 -1.37471e-05  -5.42486e-07 4.89658e-07 -1.37471e-05  -1.72544e-07 8.05278e-07 -1.37471e-05  7.5382e-08 1.20019e-06 -1.37471e-05  1.60536e-07 8.58984e-07 -1.37471e-05  5.03229e-07 4.82786e-07 -1.37471e-05  
            </DataArray>
         </PointData> 
      </Piece>
   </UnstructuredGrid> 
</VTKFile>
