<?xml version="1.0"?>
<VTKFile type="UnstructuredGrid" version="0.1" byte_order="LittleEndian">
   <UnstructuredGrid>
      <Piece NumberOfPoints="25" NumberOfCells="0" > 
         <Points> 
            <DataArray type="Float64" Name="Position" NumberOfComponents="3" format="ascii"> 
               0  0  15  
               0.75  0  15  
               1.5  0  15  
               2.25  0  15  
               3  0  15  
               0  0.75  15  
               0.75  0.75  15  
               1.5  0.75  15  
               2.25  0.75  15  
               3  0.75  15  
               0  1.5  15  
               0.75  1.5  15  
               1.5  1.5  15  
               2.25  1.5  15  
               3  1.5  15  
               0  2.25  15  
               0.75  2.25  15  
               1.5  2.25  15  
               2.25  2.25  15  
               3  2.25  15  
               0  3  15  
               0.75  3  15  
               1.5  3  15  
               2.25  3  15  
               3  3  15  
            </DataArray>
         </Points> 

         <Cells>
            <DataArray type="Int32" Name="connectivity" NumberOfComponents="1" format="ascii">
               
            </DataArray> 
            <DataArray type="Int32" Name="offsets" NumberOfComponents="1" format="ascii">
               
            </DataArray>
            <DataArray type="UInt8"  Name="types" NumberOfComponents="1" format="ascii">
               
            </DataArray>
         </Cells>
         <PointData Scalars="Rank " Vectors="Displacement Velocity Traction ">
            <DataArray type="UInt32" Name="Rank" NumberOfComponents="1" format="ascii">
               0 0 0 0 0 0 0 0 0 0 0 0 0 0 0 0 0 0 0 0 0 0 0 0 0 
            </DataArray>
            <DataArray type="Float64" Name="Displacement" NumberOfComponents="3" format="ascii">
               0.00010114 4.46894e-05 2.50316e-06  0.000100171 8.24341e-06 1.6322e-06  9.21025e-05 1.0035e-05 1.06426e-06  8.2574e-05 1.05495e-05 1.15427e-06  8.03008e-05 -4.92797e-06 2.41531e-06  3.63572e-05 4.46359e-05 1.72117e-06  3.76147e-05 9.67437e-06 7.11471e-08  3.97269e-05 8.88705e-06 -3.90962e-07  4.26114e-05 7.93022e-06 1.29331e-07  4.51954e-05 -8.06741e-06 9.59004e-07  3.26341e-05 4.05835e-05 1.22459e-06  3.13749e-05 9.55895e-06 -3.71166e-07  2.39455e-05 -4.92052e-07 -1.28207e-06  1.82337e-05 1.67288e-06 -4.13082e-07  1.79852e-05 -1.53861e-05 8.35305e-07  2.15922e-05 3.42503e-05 1.32486e-06  2.20028e-05 7.40652e-06 1.2073e-07  2.3084e-05 -9.04335e-06 -4.27406e-07  2.58354e-05 -1.83426e-06 1.16502e-07  2.60926e-05 -1.56555e-05 1.30898e-06  5.66453e-07 3.22823e-05 2.66763e-06  4.85807e-08 5.44924e-06 1.01368e-06  -1.54181e-06 -1.40286e-05 9.93868e-07  3.28666e-06 -5.08713e-06 1.55658e-06  8.07541e-06 -1.20655e-05 2.00501e-06  
            </DataArray>
            <DataArray type="Float64" Name="Velocity" NumberOfComponents="3" format="ascii">
               8.81036e-05 5.29332e-05 1.09202e-06  8.59388e-05 1.54282e-05 2.27471e-06  7.74428e-05 1.35673e-05 3.11218e-06  6.80563e-05 5.03464e-06 2.81523e-06  6.51879e-05 -1.84801e-05 1.0957e-06  3.67736e-05 5.21414e-05 2.15811e-06  3.77721e-05 1.63193e-05 3.86629e-06  3.86786e-05 1.27234e-05 5.42753e-06  4.1216e-05 2.62849e-06 4.67771e-06  4.38315e-05 -2.11253e-05 2.17055e-06  2.55769e-05 4.5207e-05 3.13961e-06  2.70979e-05 1.34119e-05 5.48651e-06  2.31468e-05 3.16154e-06 6.90319e-06  2.1137e-05 -5.26967e-06 5.42217e-06  2.37974e-05 -2.88986e-05 2.61157e-06  1.19007e-05 3.64519e-05 2.91556e-06  1.33983e-05 9.08646e-06 4.70225e-06  1.40343e-05 -4.98605e-06 5.45837e-06  1.5151e-05 -1.1158e-05 4.01124e-06  1.61867e-05 -3.38023e-05 1.81633e-06  -8.26636e-07 3.38108e-05 1.32918e-06  -1.74303e-06 6.96543e-06 2.26536e-06  -3.96297e-06 -8.1094e-06 2.85082e-06  -3.25587e-06 -1.36181e-05 2.05388e-06  -1.66125e-06 -3.33604e-05 4.47866e-07  
            </DataArray>
            <DataArray type="Float64" Name="Traction" NumberOfComponents="3" format="ascii">
               0.0012958 0.00113786 1.08802e-05  -0.000346705 0.00111114 1.08802e-05  -1.54229e-05 0.00120409 1.08802e-05  0.000219716 0.00139163 1.08802e-05  -0.00159564 0.00129192 1.08802e-05  0.00169319 -0.000403786 1.08802e-05  0.000125431 0.000160534 1.08802e-05  0.000136565 0.000607151 1.08802e-05  0.000310025 0.000182761 1.08802e-05  -0.00124205 -0.000119331 1.08802e-05  0.00175712 -0.00011991 1.08802e-05  0.000323283 8.6324e-05 1.08802e-05  0.000113813 6.44868e-05 1.08802e-05  5.10006e-05 -3.99516e-05 1.08802e-05  -0.00163489 7.64569e-06 1.08802e-05  0.00171302 0.000160261 1.08802e-05  -1.03817e-05 4.80319e-05 1.08802e-05  6.67575e-07 -0.000421957 1.08802e-05  8.19012e-05 -0.000314148 1.08802e-05  -0.000347993 -0.000328583 1.08802e-05  0.00165133 -0.00185367 1.08802e-05  -0.000178276 -0.00130824 1.08802e-05  0.000168118 -0.00152514 1.08802e-05  -1.42976e-05 -0.000619162 1.08802e-05  0.000867271 0.000650875 1.08802e-05  
            </DataArray>
         </PointData> 
      </Piece>
   </UnstructuredGrid> 
</VTKFile>
