<?xml version="1.0"?>
<VTKFile type="UnstructuredGrid" version="0.1" byte_order="LittleEndian">
   <UnstructuredGrid>
      <Piece NumberOfPoints="25" NumberOfCells="0" > 
         <Points> 
            <DataArray type="Float64" Name="Position" NumberOfComponents="3" format="ascii"> 
               0  0  15  
               0.75  0  15  
               1.5  0  15  
               2.25  0  15  
               3  0  15  
               0  0.75  15  
               0.75  0.75  15  
               1.5  0.75  15  
               2.25  0.75  15  
               3  0.75  15  
               0  1.5  15  
               0.75  1.5  15  
               1.5  1.5  15  
               2.25  1.5  15  
               3  1.5  15  
               0  2.25  15  
               0.75  2.25  15  
               1.5  2.25  15  
               2.25  2.25  15  
               3  2.25  15  
               0  3  15  
               0.75  3  15  
               1.5  3  15  
               2.25  3  15  
               3  3  15  
            </DataArray>
         </Points> 

         <Cells>
            <DataArray type="Int32" Name="connectivity" NumberOfComponents="1" format="ascii">
               
            </DataArray> 
            <DataArray type="Int32" Name="offsets" NumberOfComponents="1" format="ascii">
               
            </DataArray>
            <DataArray type="UInt8"  Name="types" NumberOfComponents="1" format="ascii">
               
            </DataArray>
         </Cells>
         <PointData Scalars="Rank " Vectors="Displacement Velocity Traction ">
            <DataArray type="UInt32" Name="Rank" NumberOfComponents="1" format="ascii">
               0 0 0 0 0 0 0 0 0 0 0 0 0 0 0 0 0 0 0 0 0 0 0 0 0 
            </DataArray>
            <DataArray type="Float64" Name="Displacement" NumberOfComponents="3" format="ascii">
               8.43805e-06 4.96397e-06 -4.06675e-06  8.34598e-06 -2.45322e-07 -4.1059e-06  7.28959e-06 -1.18032e-06 -3.98794e-06  6.14274e-06 4.45947e-07 -4.10573e-06  5.87266e-06 4.65899e-07 -4.05523e-06  6.72208e-07 4.53421e-06 -4.10349e-06  8.38671e-07 -1.53696e-07 -3.85719e-06  6.29041e-07 -8.27418e-07 -3.74086e-06  2.01329e-07 6.22398e-07 -4.04788e-06  1.25201e-07 7.26546e-09 -3.95749e-06  1.76491e-06 3.8047e-06 -3.98045e-06  1.42337e-06 6.2047e-08 -3.74192e-06  -8.21141e-08 -1.05706e-06 -3.43509e-06  -1.77549e-06 9.34014e-07 -3.76731e-06  -2.56354e-06 -6.13687e-07 -3.95138e-06  1.62091e-06 3.14131e-06 -4.09106e-06  1.47796e-06 2.72515e-07 -4.04887e-06  1.2353e-06 -1.62558e-06 -3.76274e-06  1.22259e-06 1.10324e-06 -3.89817e-06  9.68099e-07 -5.6654e-08 -4.08287e-06  -3.3307e-06 2.78371e-06 -4.04853e-06  -3.68971e-06 4.30434e-07 -3.97031e-06  -4.82504e-06 -1.80676e-06 -3.96367e-06  -4.82053e-06 7.47042e-07 -4.09547e-06  -4.14178e-06 4.19227e-07 -4.03682e-06  
            </DataArray>
            <DataArray type="Float64" Name="Velocity" NumberOfComponents="3" format="ascii">
               1.09338e-05 3.2598e-06 -1.51278e-06  1.09847e-05 -3.14621e-07 -1.94261e-06  9.86254e-06 -1.05667e-06 -2.21772e-06  8.52886e-06 1.06447e-06 -2.13016e-06  8.26667e-06 1.66249e-06 -1.47995e-06  1.98811e-06 3.12473e-06 -1.92851e-06  2.10015e-06 -1.0714e-07 -2.49251e-06  1.91164e-06 -6.82317e-07 -2.92166e-06  1.42474e-06 1.14841e-06 -2.73112e-06  1.3842e-06 1.16229e-06 -1.93342e-06  2.71254e-06 3.1342e-06 -2.20203e-06  2.15681e-06 1.69745e-07 -2.92592e-06  6.20171e-07 -1.08481e-06 -3.3357e-06  -1.06872e-06 1.16815e-06 -2.94385e-06  -1.7993e-06 4.54634e-07 -2.14179e-06  2.60073e-06 2.93876e-06 -2.1064e-06  2.36744e-06 2.77571e-07 -2.73146e-06  2.10075e-06 -1.72736e-06 -2.93944e-06  2.21193e-06 1.26587e-06 -2.53534e-06  1.99736e-06 1.23335e-06 -1.91102e-06  -2.43656e-06 2.76059e-06 -1.47413e-06  -2.58684e-06 2.83049e-07 -1.95422e-06  -3.04939e-06 -2.22591e-06 -2.16078e-06  -2.14237e-06 8.09888e-07 -1.92538e-06  -1.16942e-06 2.05091e-06 -1.45067e-06  
            </DataArray>
            <DataArray type="Float64" Name="Traction" NumberOfComponents="3" format="ascii">
               0 0 0  0 0 0  0 0 0  0 0 0  0 0 0  0 0 0  0 0 0  0 0 0  0 0 0  0 0 0  0 0 0  0 0 0  0 0 0  0 0 0  0 0 0  0 0 0  0 0 0  0 0 0  0 0 0  0 0 0  0 0 0  0 0 0  0 0 0  0 0 0  0 0 0  
            </DataArray>
         </PointData> 
      </Piece>
   </UnstructuredGrid> 
</VTKFile>
