<?xml version="1.0"?>
<VTKFile type="UnstructuredGrid" version="0.1" byte_order="LittleEndian">
   <UnstructuredGrid>
      <Piece NumberOfPoints="25" NumberOfCells="0" > 
         <Points> 
            <DataArray type="Float64" Name="Position" NumberOfComponents="3" format="ascii"> 
               0  0  15  
               0.75  0  15  
               1.5  0  15  
               2.25  0  15  
               3  0  15  
               0  0.75  15  
               0.75  0.75  15  
               1.5  0.75  15  
               2.25  0.75  15  
               3  0.75  15  
               0  1.5  15  
               0.75  1.5  15  
               1.5  1.5  15  
               2.25  1.5  15  
               3  1.5  15  
               0  2.25  15  
               0.75  2.25  15  
               1.5  2.25  15  
               2.25  2.25  15  
               3  2.25  15  
               0  3  15  
               0.75  3  15  
               1.5  3  15  
               2.25  3  15  
               3  3  15  
            </DataArray>
         </Points> 

         <Cells>
            <DataArray type="Int32" Name="connectivity" NumberOfComponents="1" format="ascii">
               
            </DataArray> 
            <DataArray type="Int32" Name="offsets" NumberOfComponents="1" format="ascii">
               
            </DataArray>
            <DataArray type="UInt8"  Name="types" NumberOfComponents="1" format="ascii">
               
            </DataArray>
         </Cells>
         <PointData Scalars="Rank " Vectors="Displacement Velocity Traction ">
            <DataArray type="UInt32" Name="Rank" NumberOfComponents="1" format="ascii">
               0 0 0 0 0 0 0 0 0 0 0 0 0 0 0 0 0 0 0 0 0 0 0 0 0 
            </DataArray>
            <DataArray type="Float64" Name="Displacement" NumberOfComponents="3" format="ascii">
               2.52929e-06 2.35986e-06 -2.27543e-06  2.46067e-06 -1.24825e-07 -2.1561e-06  2.11593e-06 -3.11017e-07 -1.98944e-06  1.75271e-06 6.19616e-08 -2.1082e-06  1.65047e-06 -1.78993e-07 -2.2837e-06  -4.7895e-08 2.1283e-06 -2.15685e-06  2.60098e-08 -1.24644e-07 -1.80152e-06  -1.80865e-08 -2.38229e-07 -1.56377e-06  -9.28695e-08 1.22861e-07 -1.85156e-06  -1.02819e-07 -3.47154e-07 -2.07618e-06  5.19639e-07 1.6291e-06 -1.98858e-06  4.20636e-07 -2.69643e-08 -1.56366e-06  -1.59843e-07 -3.34074e-07 -1.19151e-06  -7.76837e-07 2.87816e-07 -1.57396e-06  -1.07305e-06 -5.87466e-07 -1.98886e-06  3.76586e-07 1.23724e-06 -2.10552e-06  3.48346e-07 1.01253e-07 -1.85206e-06  3.07022e-07 -5.89973e-07 -1.57302e-06  3.12624e-07 3.44573e-07 -1.81401e-06  2.17093e-07 -4.74015e-07 -2.15138e-06  -1.32024e-06 1.05591e-06 -2.2815e-06  -1.5109e-06 1.92726e-07 -2.07842e-06  -2.13556e-06 -6.06416e-07 -1.99141e-06  -2.4103e-06 2.24093e-07 -2.15428e-06  -2.24461e-06 -4.04667e-07 -2.27599e-06  
            </DataArray>
            <DataArray type="Float64" Name="Velocity" NumberOfComponents="3" format="ascii">
               4.43126e-06 3.03783e-06 -2.4691e-06  4.35935e-06 -7.20733e-08 -2.4777e-06  3.75732e-06 -8.17424e-07 -2.37407e-06  3.13547e-06 1.26706e-07 -2.44251e-06  2.98606e-06 1.14685e-07 -2.46847e-06  1.9234e-07 2.75357e-06 -2.47864e-06  3.02041e-07 -3.33956e-08 -2.28865e-06  1.51433e-07 -5.76596e-07 -2.21023e-06  -1.36336e-07 2.58789e-07 -2.39737e-06  -2.04229e-07 -1.26865e-07 -2.3596e-06  7.82832e-07 2.2617e-06 -2.37103e-06  6.61638e-07 4.13468e-08 -2.21017e-06  -1.41202e-07 -6.30534e-07 -2.02769e-06  -1.08675e-06 4.85284e-07 -2.22648e-06  -1.53485e-06 -4.28985e-07 -2.35872e-06  7.77114e-07 1.82722e-06 -2.4353e-06  7.12906e-07 1.44697e-07 -2.39817e-06  5.38706e-07 -8.74496e-07 -2.22359e-06  4.7696e-07 6.07042e-07 -2.31324e-06  3.24676e-07 -1.09902e-07 -2.46469e-06  -2.10655e-06 1.60064e-06 -2.46396e-06  -2.33533e-06 2.60307e-07 -2.36571e-06  -3.03924e-06 -8.96245e-07 -2.3647e-06  -3.12681e-06 4.37997e-07 -2.47188e-06  -2.77862e-06 1.28847e-07 -2.45947e-06  
            </DataArray>
            <DataArray type="Float64" Name="Traction" NumberOfComponents="3" format="ascii">
               0 0 0  0 0 0  0 0 0  0 0 0  0 0 0  0 0 0  0 0 0  0 0 0  0 0 0  0 0 0  0 0 0  0 0 0  0 0 0  0 0 0  0 0 0  0 0 0  0 0 0  0 0 0  0 0 0  0 0 0  0 0 0  0 0 0  0 0 0  0 0 0  0 0 0  
            </DataArray>
         </PointData> 
      </Piece>
   </UnstructuredGrid> 
</VTKFile>
