<?xml version="1.0"?>
<VTKFile type="UnstructuredGrid" version="0.1" byte_order="LittleEndian">
   <UnstructuredGrid>
      <Piece NumberOfPoints="25" NumberOfCells="0" > 
         <Points> 
            <DataArray type="Float64" Name="Position" NumberOfComponents="3" format="ascii"> 
               0  0  15  
               0.75  0  15  
               1.5  0  15  
               2.25  0  15  
               3  0  15  
               0  0.75  15  
               0.75  0.75  15  
               1.5  0.75  15  
               2.25  0.75  15  
               3  0.75  15  
               0  1.5  15  
               0.75  1.5  15  
               1.5  1.5  15  
               2.25  1.5  15  
               3  1.5  15  
               0  2.25  15  
               0.75  2.25  15  
               1.5  2.25  15  
               2.25  2.25  15  
               3  2.25  15  
               0  3  15  
               0.75  3  15  
               1.5  3  15  
               2.25  3  15  
               3  3  15  
            </DataArray>
         </Points> 

         <Cells>
            <DataArray type="Int32" Name="connectivity" NumberOfComponents="1" format="ascii">
               
            </DataArray> 
            <DataArray type="Int32" Name="offsets" NumberOfComponents="1" format="ascii">
               
            </DataArray>
            <DataArray type="UInt8"  Name="types" NumberOfComponents="1" format="ascii">
               
            </DataArray>
         </Cells>
         <PointData Scalars="Rank " Vectors="Displacement Velocity Traction ">
            <DataArray type="UInt32" Name="Rank" NumberOfComponents="1" format="ascii">
               0 0 0 0 0 0 0 0 0 0 0 0 0 0 0 0 0 0 0 0 0 0 0 0 0 
            </DataArray>
            <DataArray type="Float64" Name="Displacement" NumberOfComponents="3" format="ascii">
               4.67255e-07 5.69692e-07 -6.9245e-07  4.45734e-07 -5.45649e-08 -6.29211e-07  3.79005e-07 1.46669e-08 -5.68244e-07  3.05121e-07 1.78379e-08 -6.18691e-07  2.80291e-07 -9.04274e-08 -6.92381e-07  -4.4918e-08 5.10843e-07 -6.29292e-07  -3.24945e-08 -6.04378e-08 -4.84804e-07  -2.32057e-08 1.61227e-09 -3.70434e-07  -2.11928e-09 2.10666e-08 -4.88958e-07  7.23029e-09 -1.33153e-07 -6.17136e-07  1.35839e-07 3.63553e-07 -5.68255e-07  9.78383e-08 -1.97631e-08 -3.70424e-07  -4.96427e-08 -4.82769e-08 -1.99662e-07  -1.89456e-07 5.96828e-08 -3.72167e-07  -2.58174e-07 -2.07404e-07 -5.69803e-07  5.30435e-08 2.58954e-07 -6.18533e-07  4.77358e-08 2.75709e-08 -4.89025e-07  6.51875e-08 -1.43389e-07 -3.72171e-07  8.41215e-08 6.50952e-08 -4.86335e-07  6.28289e-08 -2.15035e-07 -6.29166e-07  -2.442e-07 2.1354e-07 -6.92166e-07  -2.94062e-07 4.8127e-08 -6.1728e-07  -4.70008e-07 -1.59266e-07 -5.70054e-07  -5.79668e-07 3.10174e-08 -6.29388e-07  -5.56225e-07 -2.23054e-07 -6.9266e-07  
            </DataArray>
            <DataArray type="Float64" Name="Velocity" NumberOfComponents="3" format="ascii">
               1.193e-06 1.35006e-06 -1.37499e-06  1.15401e-06 -9.39181e-08 -1.27088e-06  1.00035e-06 -8.8384e-08 -1.1541e-06  8.32615e-07 3.0432e-08 -1.23761e-06  7.79853e-07 -1.80144e-07 -1.38199e-06  -7.68094e-08 1.21607e-06 -1.27122e-06  -3.68509e-08 -1.01839e-07 -1.01814e-06  -4.20795e-08 -7.97589e-08 -8.44445e-07  -4.34771e-08 5.22022e-08 -1.03673e-06  -3.65396e-08 -2.6972e-07 -1.22888e-06  2.74287e-07 9.02299e-07 -1.15401e-06  2.14708e-07 -3.34371e-08 -8.44401e-07  -1.05344e-07 -1.45792e-07 -5.89716e-07  -4.20251e-07 1.39983e-07 -8.49752e-07  -5.7263e-07 -4.0311e-07 -1.15707e-06  1.57127e-07 6.66273e-07 -1.23689e-06  1.46855e-07 5.37408e-08 -1.03698e-06  1.48849e-07 -3.07691e-07 -8.49612e-07  1.69312e-07 1.5906e-07 -1.0234e-06  1.23624e-07 -3.69864e-07 -1.26988e-06  -6.68377e-07 5.62824e-07 -1.38114e-06  -7.80237e-07 1.06578e-07 -1.22949e-06  -1.15461e-06 -3.17001e-07 -1.15798e-06  -1.36698e-06 9.36356e-08 -1.27077e-06  -1.3022e-06 -3.60405e-07 -1.37705e-06  
            </DataArray>
            <DataArray type="Float64" Name="Traction" NumberOfComponents="3" format="ascii">
               2.43832e-05 2.43547e-05 -0.000122069  -7.59993e-06 2.30227e-05 -0.000122069  -3.18048e-06 9.2092e-08 -0.000122069  1.35164e-06 1.15033e-05 -0.000122069  -2.30405e-05 2.64408e-05 -0.000122069  1.67058e-05 -8.51352e-06 -0.000122069  -2.14303e-06 -3.82776e-06 -0.000122069  -1.9237e-07 -4.52597e-06 -0.000122069  3.53901e-06 -1.58541e-06 -0.000122069  -2.92669e-05 3.68156e-06 -0.000122069  1.87214e-05 -1.41194e-06 -0.000122069  -2.79351e-06 -1.05107e-06 -0.000122069  -6.67544e-07 -3.26062e-07 -0.000122069  8.89287e-06 9.96965e-07 -0.000122069  -3.34695e-05 2.72253e-06 -0.000122069  2.11124e-05 3.35562e-06 -0.000122069  -1.40679e-06 4.5162e-06 -0.000122069  1.76789e-06 6.5876e-06 -0.000122069  3.64692e-06 3.1017e-06 -0.000122069  -2.37049e-05 -1.71094e-06 -0.000122069  1.74018e-05 -1.35244e-05 -0.000122069  1.09673e-06 -2.27866e-05 -0.000122069  2.3949e-06 -1.67116e-05 -0.000122069  2.24203e-06 -5.09612e-06 -0.000122069  -6.40432e-06 -8.59018e-06 -0.000122069  
            </DataArray>
         </PointData> 
      </Piece>
   </UnstructuredGrid> 
</VTKFile>
