<?xml version="1.0"?>
<VTKFile type="UnstructuredGrid" version="0.1" byte_order="LittleEndian">
   <UnstructuredGrid>
      <Piece NumberOfPoints="25" NumberOfCells="0" > 
         <Points> 
            <DataArray type="Float64" Name="Position" NumberOfComponents="3" format="ascii"> 
               0  0  20  
               0.75  0  20  
               1.5  0  20  
               2.25  0  20  
               3  0  20  
               0  0.75  20  
               0.75  0.75  20  
               1.5  0.75  20  
               2.25  0.75  20  
               3  0.75  20  
               0  1.5  20  
               0.75  1.5  20  
               1.5  1.5  20  
               2.25  1.5  20  
               3  1.5  20  
               0  2.25  20  
               0.75  2.25  20  
               1.5  2.25  20  
               2.25  2.25  20  
               3  2.25  20  
               0  3  20  
               0.75  3  20  
               1.5  3  20  
               2.25  3  20  
               3  3  20  
            </DataArray>
         </Points> 

         <Cells>
            <DataArray type="Int32" Name="connectivity" NumberOfComponents="1" format="ascii">
               
            </DataArray> 
            <DataArray type="Int32" Name="offsets" NumberOfComponents="1" format="ascii">
               
            </DataArray>
            <DataArray type="UInt8"  Name="types" NumberOfComponents="1" format="ascii">
               
            </DataArray>
         </Cells>
         <PointData Scalars="Rank " Vectors="Displacement Velocity Traction ">
            <DataArray type="UInt32" Name="Rank" NumberOfComponents="1" format="ascii">
               0 0 0 0 0 0 0 0 0 0 0 0 0 0 0 0 0 0 0 0 0 0 0 0 0 
            </DataArray>
            <DataArray type="Float64" Name="Displacement" NumberOfComponents="3" format="ascii">
               6.94207e-07 6.97181e-07 -2.87145e-06  -3.89189e-08 1.25695e-06 -2.76804e-06  -4.95985e-07 1.4678e-06 -2.58518e-06  -4.261e-07 1.03847e-06 -2.71615e-06  -8.78028e-07 1.35597e-06 -2.88027e-06  1.25436e-06 -3.59022e-08 -2.76879e-06  3.9202e-07 3.95532e-07 -2.38514e-06  -1.17629e-07 6.30847e-07 -2.14211e-06  -3.66631e-07 3.91263e-07 -2.46645e-06  -9.99594e-07 7.10276e-07 -2.65935e-06  1.45771e-06 -4.8967e-07 -2.58288e-06  6.29272e-07 -1.08534e-07 -2.14214e-06  2.37366e-08 2.2467e-08 -1.74074e-06  -5.62649e-07 1.05604e-07 -2.15675e-06  -1.39167e-06 4.9184e-07 -2.57851e-06  1.02574e-06 -4.263e-07 -2.71111e-06  3.8774e-07 -3.69591e-07 -2.46715e-06  1.12109e-07 -5.67666e-07 -2.15485e-06  -3.59933e-07 -3.65138e-07 -2.40448e-06  -1.21088e-06 1.08494e-08 -2.75934e-06  1.34966e-06 -8.81914e-07 -2.87703e-06  7.10319e-07 -1.00434e-06 -2.66359e-06  5.02396e-07 -1.40662e-06 -2.58302e-06  1.1152e-08 -1.23895e-06 -2.76448e-06  -7.16846e-07 -7.28429e-07 -2.86885e-06  
            </DataArray>
            <DataArray type="Float64" Name="Velocity" NumberOfComponents="3" format="ascii">
               5.5482e-07 5.71976e-07 -2.49277e-06  1.54331e-09 9.33206e-07 -2.59956e-06  -5.50929e-07 9.41333e-07 -2.57192e-06  -4.83556e-07 7.35623e-07 -2.60658e-06  -6.57825e-07 1.25849e-06 -2.47803e-06  9.1326e-07 9.51338e-09 -2.59884e-06  3.81384e-07 3.90468e-07 -2.56143e-06  -1.68083e-07 5.64484e-07 -2.5972e-06  -4.13097e-07 4.61073e-07 -2.70979e-06  -6.56576e-07 8.20557e-07 -2.48543e-06  9.1894e-07 -5.36319e-07 -2.56581e-06  5.59571e-07 -1.5042e-07 -2.59778e-06  -1.96831e-08 -2.09803e-08 -2.54278e-06  -5.22807e-07 1.30039e-07 -2.61669e-06  -8.41745e-07 5.27905e-07 -2.54004e-06  7.1131e-07 -4.83914e-07 -2.59501e-06  4.53015e-07 -4.16724e-07 -2.71057e-06  1.41159e-07 -5.32446e-07 -2.61232e-06  -3.49613e-07 -3.6156e-07 -2.59337e-06  -8.58893e-07 -2.52307e-08 -2.58051e-06  1.24073e-06 -6.64626e-07 -2.47269e-06  8.19538e-07 -6.67167e-07 -2.4954e-06  5.44078e-07 -8.7039e-07 -2.54946e-06  -2.57807e-08 -9.03318e-07 -2.59118e-06  -5.92127e-07 -6.02695e-07 -2.46888e-06  
            </DataArray>
            <DataArray type="Float64" Name="Traction" NumberOfComponents="3" format="ascii">
               -5.19596e-06 -4.98889e-06 -2.72891e-05  -1.46689e-06 -9.20291e-06 -2.72891e-05  2.50596e-06 -1.04334e-05 -2.72891e-05  2.40601e-06 -6.79433e-06 -2.72891e-05  5.153e-06 -8.60554e-06 -2.72891e-05  -9.237e-06 -1.20962e-06 -2.72891e-05  -3.72742e-06 -3.66943e-06 -2.72891e-05  2.6052e-06 -5.55404e-06 -2.72891e-05  3.31605e-06 -3.49736e-06 -2.72891e-05  6.23024e-06 -4.24522e-06 -2.72891e-05  -1.06832e-05 2.73179e-06 -2.72891e-05  -5.77129e-06 2.57461e-06 -2.72891e-05  1.99877e-06 2.01554e-06 -2.72891e-05  5.53519e-06 3.2863e-07 -2.72891e-05  1.03883e-05 -1.19101e-06 -2.72891e-05  -6.83441e-06 2.63602e-06 -2.72891e-05  -3.58174e-06 3.28127e-06 -2.72891e-05  2.90874e-07 5.465e-06 -2.72891e-05  3.38603e-06 3.43365e-06 -2.72891e-05  8.73918e-06 9.7768e-07 -2.72891e-05  -8.22281e-06 5.44003e-06 -2.72891e-05  -3.93295e-06 6.18131e-06 -2.72891e-05  -7.99069e-07 1.03081e-05 -2.72891e-05  1.5224e-06 8.97689e-06 -2.72891e-05  5.07738e-06 4.70169e-06 -2.72891e-05  
            </DataArray>
         </PointData> 
      </Piece>
   </UnstructuredGrid> 
</VTKFile>
