<?xml version="1.0"?>
<VTKFile type="UnstructuredGrid" version="0.1" byte_order="LittleEndian">
   <UnstructuredGrid>
      <Piece NumberOfPoints="25" NumberOfCells="0" > 
         <Points> 
            <DataArray type="Float64" Name="Position" NumberOfComponents="3" format="ascii"> 
               0  0  20  
               0.75  0  20  
               1.5  0  20  
               2.25  0  20  
               3  0  20  
               0  0.75  20  
               0.75  0.75  20  
               1.5  0.75  20  
               2.25  0.75  20  
               3  0.75  20  
               0  1.5  20  
               0.75  1.5  20  
               1.5  1.5  20  
               2.25  1.5  20  
               3  1.5  20  
               0  2.25  20  
               0.75  2.25  20  
               1.5  2.25  20  
               2.25  2.25  20  
               3  2.25  20  
               0  3  20  
               0.75  3  20  
               1.5  3  20  
               2.25  3  20  
               3  3  20  
            </DataArray>
         </Points> 

         <Cells>
            <DataArray type="Int32" Name="connectivity" NumberOfComponents="1" format="ascii">
               
            </DataArray> 
            <DataArray type="Int32" Name="offsets" NumberOfComponents="1" format="ascii">
               
            </DataArray>
            <DataArray type="UInt8"  Name="types" NumberOfComponents="1" format="ascii">
               
            </DataArray>
         </Cells>
         <PointData Scalars="Rank " Vectors="Displacement Velocity Traction ">
            <DataArray type="UInt32" Name="Rank" NumberOfComponents="1" format="ascii">
               0 0 0 0 0 0 0 0 0 0 0 0 0 0 0 0 0 0 0 0 0 0 0 0 0 
            </DataArray>
            <DataArray type="Float64" Name="Displacement" NumberOfComponents="3" format="ascii">
               0 0 0  0 0 0  0 0 0  0 0 0  0 0 0  0 0 0  0 0 0  0 0 0  0 0 0  0 0 0  0 0 0  0 0 0  0 0 0  0 0 0  0 0 0  0 0 0  0 0 0  0 0 0  0 0 0  0 0 0  0 0 0  0 0 0  0 0 0  0 0 0  0 0 0  
            </DataArray>
            <DataArray type="Float64" Name="Velocity" NumberOfComponents="3" format="ascii">
               0 0 0  0 0 0  0 0 0  0 0 0  0 0 0  0 0 0  0 0 0  0 0 0  0 0 0  0 0 0  0 0 0  0 0 0  0 0 0  0 0 0  0 0 0  0 0 0  0 0 0  0 0 0  0 0 0  0 0 0  0 0 0  0 0 0  0 0 0  0 0 0  0 0 0  
            </DataArray>
            <DataArray type="Float64" Name="Traction" NumberOfComponents="3" format="ascii">
               3.9494e-06 3.29401e-06 -8.77106e-05  -1.29085e-05 2.49556e-05 -8.77106e-05  -1.75676e-05 1.09021e-05 -8.77106e-05  -1.57265e-05 9.597e-06 -8.77106e-05  -2.18069e-05 3.52986e-05 -8.77106e-05  3.02509e-05 -1.38719e-05 -8.77106e-05  1.33136e-05 8.33553e-06 -8.77106e-05  1.60264e-06 6.72157e-06 -8.77106e-05  -3.37095e-06 7.12331e-06 -8.77106e-05  -6.07861e-06 2.29059e-05 -8.77106e-05  1.47492e-05 -1.99732e-05 -8.77106e-05  9.80025e-06 -1.87056e-06 -8.77106e-05  2.69622e-06 1.02443e-06 -8.77106e-05  -7.15742e-07 4.10505e-06 -8.77106e-05  -2.04779e-06 1.77105e-05 -8.77106e-05  1.72592e-05 -2.00613e-05 -8.77106e-05  1.20664e-05 -6.23816e-06 -8.77106e-05  4.92623e-06 -4.3596e-06 -8.77106e-05  -3.57249e-06 -5.57397e-06 -8.77106e-05  -1.23654e-05 9.50719e-06 -8.77106e-05  4.26507e-05 -2.71307e-05 -8.77106e-05  2.74888e-05 -8.71095e-06 -8.77106e-05  1.79462e-05 -6.33338e-06 -8.77106e-05  1.00244e-05 -1.59552e-05 -8.77106e-05  -2.15991e-06 -4.95185e-06 -8.77106e-05  
            </DataArray>
         </PointData> 
      </Piece>
   </UnstructuredGrid> 
</VTKFile>
