<?xml version="1.0"?>
<VTKFile type="UnstructuredGrid" version="0.1" byte_order="LittleEndian">
   <UnstructuredGrid>
      <Piece NumberOfPoints="25" NumberOfCells="0" > 
         <Points> 
            <DataArray type="Float64" Name="Position" NumberOfComponents="3" format="ascii"> 
               0  0  20  
               0.75  0  20  
               1.5  0  20  
               2.25  0  20  
               3  0  20  
               0  0.75  20  
               0.75  0.75  20  
               1.5  0.75  20  
               2.25  0.75  20  
               3  0.75  20  
               0  1.5  20  
               0.75  1.5  20  
               1.5  1.5  20  
               2.25  1.5  20  
               3  1.5  20  
               0  2.25  20  
               0.75  2.25  20  
               1.5  2.25  20  
               2.25  2.25  20  
               3  2.25  20  
               0  3  20  
               0.75  3  20  
               1.5  3  20  
               2.25  3  20  
               3  3  20  
            </DataArray>
         </Points> 

         <Cells>
            <DataArray type="Int32" Name="connectivity" NumberOfComponents="1" format="ascii">
               
            </DataArray> 
            <DataArray type="Int32" Name="offsets" NumberOfComponents="1" format="ascii">
               
            </DataArray>
            <DataArray type="UInt8"  Name="types" NumberOfComponents="1" format="ascii">
               
            </DataArray>
         </Cells>
         <PointData Scalars="Rank " Vectors="Displacement Velocity Traction ">
            <DataArray type="UInt32" Name="Rank" NumberOfComponents="1" format="ascii">
               0 0 0 0 0 0 0 0 0 0 0 0 0 0 0 0 0 0 0 0 0 0 0 0 0 
            </DataArray>
            <DataArray type="Float64" Name="Displacement" NumberOfComponents="3" format="ascii">
               2.86382e-05 2.79808e-05 -0.000111149  -9.17558e-07 5.1527e-05 -0.000102704  -1.5435e-05 6.26988e-05 -9.35002e-05  -1.14593e-05 4.30842e-05 -9.9832e-05  -3.33463e-05 5.01201e-05 -0.000108421  5.3083e-05 -1.53008e-06 -0.000103836  1.60109e-05 1.44252e-05 -8.2567e-05  -2.12209e-06 2.36262e-05 -6.80574e-05  -1.02865e-05 1.25737e-05 -8.44349e-05  -4.04306e-05 2.27267e-05 -9.772e-05  6.52002e-05 -1.62987e-05 -9.49603e-05  2.59062e-05 -2.88511e-06 -6.81624e-05  3.34555e-06 2.12899e-06 -4.56055e-05  -1.90462e-05 4.30869e-06 -6.86571e-05  -5.85812e-05 1.78216e-05 -9.29953e-05  4.56566e-05 -1.39019e-05 -0.000100984  1.48472e-05 -1.13916e-05 -8.42263e-05  5.91909e-06 -2.00154e-05 -6.8503e-05  -1.07345e-05 -1.2093e-05 -8.30001e-05  -4.82171e-05 2.61811e-06 -0.000101551  5.19495e-05 -3.65059e-05 -0.000110896  2.46332e-05 -4.22708e-05 -9.84834e-05  1.90237e-05 -5.98518e-05 -9.36679e-05  3.33941e-06 -4.95551e-05 -0.000102455  -2.63053e-05 -2.72312e-05 -0.000108915  
            </DataArray>
            <DataArray type="Float64" Name="Velocity" NumberOfComponents="3" format="ascii">
               4.27996e-05 4.43581e-05 -0.000168687  -7.0502e-07 7.5055e-05 -0.000161901  -2.57917e-05 8.71505e-05 -0.000151346  -2.15097e-05 6.16173e-05 -0.000159926  -4.83446e-05 7.85383e-05 -0.000165371  7.47987e-05 1.10644e-06 -0.000162534  2.35101e-05 2.3825e-05 -0.000139501  -6.89497e-06 3.68262e-05 -0.000123766  -2.12587e-05 2.28181e-05 -0.00014497  -5.95986e-05 3.96634e-05 -0.000155172  8.79876e-05 -2.42889e-05 -0.00015272  3.73144e-05 -5.64568e-06 -0.000124076  1.07115e-06 1.63089e-06 -9.68263e-05  -3.19144e-05 5.96634e-06 -0.000124462  -8.14949e-05 2.46057e-05 -0.000149107  6.34992e-05 -2.22838e-05 -0.000161551  2.38631e-05 -2.10311e-05 -0.000145087  6.05115e-06 -3.2168e-05 -0.000124512  -1.99484e-05 -2.07705e-05 -0.00014061  -6.92741e-05 -1.14947e-06 -0.00015904  8.06091e-05 -5.03203e-05 -0.000168665  4.1516e-05 -6.04273e-05 -0.000156215  2.50693e-05 -8.25303e-05 -0.000150333  -1.688e-06 -7.09618e-05 -0.000160402  -4.30882e-05 -4.28253e-05 -0.00016431  
            </DataArray>
            <DataArray type="Float64" Name="Traction" NumberOfComponents="3" format="ascii">
               -0.000263987 -0.000246074 -0.0018976  -9.88182e-05 -0.000392733 -0.0018976  6.98481e-05 -0.00048891 -0.0018976  8.06465e-05 -0.000334367 -0.0018976  0.000223268 -0.00032231 -0.0018976  -0.000404163 -8.57026e-05 -0.0018976  -0.000163311 -0.000157118 -0.0018976  0.000122302 -0.000258747 -0.0018976  0.000155752 -0.000164924 -0.0018976  0.00030749 -0.00013303 -0.0018976  -0.000503385 7.30076e-05 -0.0018976  -0.000265925 0.000117911 -0.0018976  0.000105836 0.00010223 -0.0018976  0.000244541 2.98867e-05 -0.0018976  0.000468716 -6.44875e-06 -0.0018976  -0.000339232 9.90699e-05 -0.0018976  -0.000163178 0.000163801 -0.0018976  3.61339e-05 0.000247284 -0.0018976  0.000154073 0.000157355 -0.0018976  0.000384522 8.09725e-05 -0.0018976  -0.000327235 0.000253275 -0.0018976  -0.000131607 0.000329206 -0.0018976  3.14485e-06 0.000481921 -0.0018976  8.29002e-05 0.000396166 -0.0018976  0.000235656 0.000241866 -0.0018976  
            </DataArray>
         </PointData> 
      </Piece>
   </UnstructuredGrid> 
</VTKFile>
