<?xml version="1.0"?>
<VTKFile type="UnstructuredGrid" version="0.1" byte_order="LittleEndian">
   <UnstructuredGrid>
      <Piece NumberOfPoints="25" NumberOfCells="0" > 
         <Points> 
            <DataArray type="Float64" Name="Position" NumberOfComponents="3" format="ascii"> 
               0  0  20  
               0.75  0  20  
               1.5  0  20  
               2.25  0  20  
               3  0  20  
               0  0.75  20  
               0.75  0.75  20  
               1.5  0.75  20  
               2.25  0.75  20  
               3  0.75  20  
               0  1.5  20  
               0.75  1.5  20  
               1.5  1.5  20  
               2.25  1.5  20  
               3  1.5  20  
               0  2.25  20  
               0.75  2.25  20  
               1.5  2.25  20  
               2.25  2.25  20  
               3  2.25  20  
               0  3  20  
               0.75  3  20  
               1.5  3  20  
               2.25  3  20  
               3  3  20  
            </DataArray>
         </Points> 

         <Cells>
            <DataArray type="Int32" Name="connectivity" NumberOfComponents="1" format="ascii">
               
            </DataArray> 
            <DataArray type="Int32" Name="offsets" NumberOfComponents="1" format="ascii">
               
            </DataArray>
            <DataArray type="UInt8"  Name="types" NumberOfComponents="1" format="ascii">
               
            </DataArray>
         </Cells>
         <PointData Scalars="Rank " Vectors="Displacement Velocity Traction ">
            <DataArray type="UInt32" Name="Rank" NumberOfComponents="1" format="ascii">
               0 0 0 0 0 0 0 0 0 0 0 0 0 0 0 0 0 0 0 0 0 0 0 0 0 
            </DataArray>
            <DataArray type="Float64" Name="Displacement" NumberOfComponents="3" format="ascii">
               0.036121 0.03609 -0.135109  0.000312613 0.0636935 -0.124017  -0.0051911 0.0874091 -0.114483  -0.00502888 0.0613116 -0.128456  -0.0400576 0.0462227 -0.140088  0.0637325 0.000286993 -0.124033  0.0119903 0.0119602 -0.0984967  -0.00141128 0.0203306 -0.070024  -0.0110347 0.0111189 -0.0980212  -0.0608444 0.00921757 -0.128113  0.0874388 -0.00522198 -0.114488  0.0203575 -0.00143731 -0.0700196  0.00074565 0.000720839 -0.0242315  -0.0192453 0.00139863 -0.0701086  -0.0864683 0.0055632 -0.114374  0.0613253 -0.00506278 -0.128447  0.0111363 -0.0110627 -0.0980097  0.00141859 -0.0192689 -0.0701034  -0.0114881 -0.0115086 -0.0988044  -0.0632455 -0.000788708 -0.123925  0.0462366 -0.0400801 -0.140086  0.00923606 -0.0608709 -0.128109  0.00557888 -0.0864927 -0.114377  -0.0007719 -0.063264 -0.123932  -0.0361503 -0.036169 -0.134927  
            </DataArray>
            <DataArray type="Float64" Name="Velocity" NumberOfComponents="3" format="ascii">
               0.277769 0.277746 -1.0554  -0.00377956 0.509931 -0.957597  -0.0175095 0.735145 -0.889162  -0.0103917 0.508854 -1.03787  -0.315242 0.333312 -1.14633  0.509987 -0.00378884 -0.95762  0.0847218 0.0846843 -0.766958  -0.00642195 0.139046 -0.499161  -0.0771278 0.0764722 -0.745554  -0.507277 0.0237732 -1.0387  0.735199 -0.0175332 -0.88917  0.139093 -0.00644893 -0.49917  0.00431601 0.00428109 -0.0647824  -0.134916 0.00692301 -0.498507  -0.731776 0.019863 -0.888075  0.508906 -0.0104601 -1.03786  0.0765104 -0.0771702 -0.745545  0.0069549 -0.13495 -0.498503  -0.0832066 -0.0832457 -0.767939  -0.509196 0.00138952 -0.95727  0.333368 -0.315317 -1.14636  0.0238236 -0.507336 -1.0387  0.0198842 -0.731823 -0.888076  0.00138074 -0.50924 -0.957266  -0.277791 -0.277777 -1.05602  
            </DataArray>
            <DataArray type="Float64" Name="Traction" NumberOfComponents="3" format="ascii">
               -0.293036 -0.293697 -52.3624  -0.0432821 -0.565085 -52.3624  0.100898 -0.852149 -52.3624  0.0889916 -0.601139 -52.3624  0.307733 -0.364806 -52.3624  -0.56486 -0.043528 -52.3624  -0.215658 -0.215769 -52.3624  0.140139 -0.36672 -52.3624  0.223042 -0.223133 -52.3624  0.592208 -0.123946 -52.3624  -0.852095 0.100619 -52.3624  -0.366664 0.139843 -52.3624  0.22897 0.22875 -52.3624  0.360265 0.139628 -52.3624  0.846782 -0.00117859 -52.3624  -0.600696 0.0888929 -52.3624  -0.223031 0.222802 -52.3624  0.139835 0.360117 -52.3624  0.21372 0.213585 -52.3624  0.558946 0.0492158 -52.3624  -0.364199 0.30827 -52.3624  -0.123922 0.592489 -52.3624  -0.00111759 0.847004 -52.3624  0.0491733 0.559299 -52.3624  0.293101 0.293807 -52.3624  
            </DataArray>
         </PointData> 
      </Piece>
   </UnstructuredGrid> 
</VTKFile>
