<?xml version="1.0"?>
<VTKFile type="UnstructuredGrid" version="0.1" byte_order="LittleEndian">
   <UnstructuredGrid>
      <Piece NumberOfPoints="25" NumberOfCells="0" > 
         <Points> 
            <DataArray type="Float64" Name="Position" NumberOfComponents="3" format="ascii"> 
               0  0  15  
               0.75  0  15  
               1.5  0  15  
               2.25  0  15  
               3  0  15  
               0  0.75  15  
               0.75  0.75  15  
               1.5  0.75  15  
               2.25  0.75  15  
               3  0.75  15  
               0  1.5  15  
               0.75  1.5  15  
               1.5  1.5  15  
               2.25  1.5  15  
               3  1.5  15  
               0  2.25  15  
               0.75  2.25  15  
               1.5  2.25  15  
               2.25  2.25  15  
               3  2.25  15  
               0  3  15  
               0.75  3  15  
               1.5  3  15  
               2.25  3  15  
               3  3  15  
            </DataArray>
         </Points> 

         <Cells>
            <DataArray type="Int32" Name="connectivity" NumberOfComponents="1" format="ascii">
               
            </DataArray> 
            <DataArray type="Int32" Name="offsets" NumberOfComponents="1" format="ascii">
               
            </DataArray>
            <DataArray type="UInt8"  Name="types" NumberOfComponents="1" format="ascii">
               
            </DataArray>
         </Cells>
         <PointData Scalars="Rank " Vectors="Displacement Velocity Traction ">
            <DataArray type="UInt32" Name="Rank" NumberOfComponents="1" format="ascii">
               0 0 0 0 0 0 0 0 0 0 0 0 0 0 0 0 0 0 0 0 0 0 0 0 0 
            </DataArray>
            <DataArray type="Float64" Name="Displacement" NumberOfComponents="3" format="ascii">
               0.00134794 0.00143667 -0.00163446  0.00125361 0.000148724 -0.00163298  0.000930004 -0.000263363 -0.00157108  0.000560458 -0.000278763 -0.00163989  0.00041919 -0.00102581 -0.00164843  -2.08704e-05 0.00134259 -0.00162578  -2.83684e-05 0.000138175 -0.0014966  -0.000254744 -0.000149293 -0.0013903  -0.000468934 -0.000274376 -0.0015555  -0.000453806 -0.00117839 -0.00160462  -0.000429244 0.00102853 -0.00156492  -0.00031516 -0.000100734 -0.00139098  -0.000464074 -0.000308014 -0.00118873  -0.00060488 -0.0005167 -0.00139667  -0.000487548 -0.00154973 -0.00156597  -0.000469871 0.000666415 -0.00163617  -0.000459461 -0.00032732 -0.0015574  -0.000685069 -0.000457006 -0.00139729  -0.000913393 -0.000761993 -0.00150918  -0.000922745 -0.00185287 -0.00162878  -0.00123434 0.000525225 -0.00163743  -0.00137808 -0.000320376 -0.00160031  -0.00172965 -0.000350089 -0.00156041  -0.00201339 -0.000783213 -0.00162207  -0.00209138 -0.00193899 -0.00162553  
            </DataArray>
            <DataArray type="Float64" Name="Velocity" NumberOfComponents="3" format="ascii">
               0.000478287 0.000622426 -0.00158248  0.000424444 2.33367e-05 -0.00159656  0.00027279 -0.000210733 -0.00155273  0.000108837 -0.000190187 -0.00161374  4.14837e-05 -0.000517215 -0.00160594  -0.000122339 0.000567389 -0.00158896  -0.000137967 6.08343e-06 -0.00149164  -0.000269244 -0.000157806 -0.00140562  -0.000392319 -0.00019349 -0.0015517  -0.000392144 -0.000603313 -0.00158327  -0.000337116 0.000414171 -0.00154305  -0.000284004 -0.000127134 -0.00140489  -0.00035247 -0.000224874 -0.00123042  -0.000424573 -0.000311455 -0.00141307  -0.00037314 -0.000792058 -0.00155338  -0.000322755 0.00024813 -0.00160462  -0.000326842 -0.000248015 -0.00155193  -0.000450322 -0.000290874 -0.00141294  -0.000581737 -0.000434038 -0.00150623  -0.00059979 -0.00094924 -0.00160029  -0.000682342 0.00017899 -0.00158449  -0.000767902 -0.000244406 -0.00157502  -0.000958828 -0.000232478 -0.00154421  -0.00112132 -0.000445984 -0.00159121  -0.00117804 -0.00100255 -0.00158142  
            </DataArray>
            <DataArray type="Float64" Name="Traction" NumberOfComponents="3" format="ascii">
               0 0 0  0 0 0  0 0 0  0 0 0  0 0 0  0 0 0  0 0 0  0 0 0  0 0 0  0 0 0  0 0 0  0 0 0  0 0 0  0 0 0  0 0 0  0 0 0  0 0 0  0 0 0  0 0 0  0 0 0  0 0 0  0 0 0  0 0 0  0 0 0  0 0 0  
            </DataArray>
         </PointData> 
      </Piece>
   </UnstructuredGrid> 
</VTKFile>
