<?xml version="1.0"?>
<VTKFile type="UnstructuredGrid" version="0.1" byte_order="LittleEndian">
   <UnstructuredGrid>
      <Piece NumberOfPoints="25" NumberOfCells="0" > 
         <Points> 
            <DataArray type="Float64" Name="Position" NumberOfComponents="3" format="ascii"> 
               0  0  20  
               0.75  0  20  
               1.5  0  20  
               2.25  0  20  
               3  0  20  
               0  0.75  20  
               0.75  0.75  20  
               1.5  0.75  20  
               2.25  0.75  20  
               3  0.75  20  
               0  1.5  20  
               0.75  1.5  20  
               1.5  1.5  20  
               2.25  1.5  20  
               3  1.5  20  
               0  2.25  20  
               0.75  2.25  20  
               1.5  2.25  20  
               2.25  2.25  20  
               3  2.25  20  
               0  3  20  
               0.75  3  20  
               1.5  3  20  
               2.25  3  20  
               3  3  20  
            </DataArray>
         </Points> 

         <Cells>
            <DataArray type="Int32" Name="connectivity" NumberOfComponents="1" format="ascii">
               
            </DataArray> 
            <DataArray type="Int32" Name="offsets" NumberOfComponents="1" format="ascii">
               
            </DataArray>
            <DataArray type="UInt8"  Name="types" NumberOfComponents="1" format="ascii">
               
            </DataArray>
         </Cells>
         <PointData Scalars="Rank " Vectors="Displacement Velocity Traction ">
            <DataArray type="UInt32" Name="Rank" NumberOfComponents="1" format="ascii">
               0 0 0 0 0 0 0 0 0 0 0 0 0 0 0 0 0 0 0 0 0 0 0 0 0 
            </DataArray>
            <DataArray type="Float64" Name="Displacement" NumberOfComponents="3" format="ascii">
               3.37398e-07 3.36321e-07 -1.33888e-06  -1.82694e-08 6.1997e-07 -1.23858e-06  -1.75373e-07 7.68911e-07 -1.12622e-06  -1.53643e-07 5.30665e-07 -1.21072e-06  -4.28547e-07 5.92804e-07 -1.3444e-06  6.21303e-07 -1.77291e-08 -1.23889e-06  1.65145e-07 1.65782e-07 -9.87623e-07  -3.78552e-08 2.80369e-07 -8.05153e-07  -1.43662e-07 1.46309e-07 -1.005e-06  -5.22325e-07 2.58365e-07 -1.20178e-06  7.67063e-07 -1.74288e-07 -1.12596e-06  2.8023e-07 -3.5989e-08 -8.0514e-07  2.00183e-08 1.96223e-08 -5.31094e-07  -2.47429e-07 3.73815e-08 -8.09899e-07  -7.43336e-07 1.79488e-07 -1.12829e-06  5.2803e-07 -1.53637e-07 -1.20995e-06  1.45712e-07 -1.44475e-07 -1.00522e-06  3.89182e-08 -2.48352e-07 -8.09692e-07  -1.53195e-07 -1.53765e-07 -9.92499e-07  -6.08344e-07 5.24217e-09 -1.23745e-06  5.92342e-07 -4.29588e-07 -1.34366e-06  2.58377e-07 -5.2311e-07 -1.20243e-06  1.82237e-07 -7.46403e-07 -1.1292e-06  5.08213e-09 -6.15407e-07 -1.23836e-06  -3.43587e-07 -3.47555e-07 -1.34047e-06  
            </DataArray>
            <DataArray type="Float64" Name="Velocity" NumberOfComponents="3" format="ascii">
               4.80874e-07 4.8041e-07 -2.00895e-06  -4.18511e-08 8.92751e-07 -1.92489e-06  -3.75221e-07 1.03992e-06 -1.7791e-06  -3.13115e-07 7.23588e-07 -1.87099e-06  -6.29348e-07 9.71528e-07 -2.02567e-06  8.94136e-07 -4.04609e-08 -1.92576e-06  2.82502e-07 2.84204e-07 -1.63431e-06  -7.926e-08 4.55544e-07 -1.46052e-06  -2.54032e-07 2.7118e-07 -1.68722e-06  -7.01938e-07 5.16291e-07 -1.83812e-06  1.03436e-06 -3.71836e-07 -1.77803e-06  4.54915e-07 -7.36982e-08 -1.46044e-06  2.2502e-08 2.1526e-08 -1.1851e-06  -4.0077e-07 7.48178e-08 -1.47098e-06  -9.87492e-07 3.7321e-07 -1.77828e-06  7.15753e-07 -3.13199e-07 -1.86828e-06  2.69263e-07 -2.56238e-07 -1.68778e-06  7.90208e-08 -4.03789e-07 -1.46996e-06  -2.5782e-07 -2.60568e-07 -1.64709e-06  -8.61654e-07 2.081e-08 -1.91977e-06  9.68745e-07 -6.31843e-07 -2.02348e-06  5.16498e-07 -7.04497e-07 -1.84034e-06  3.80338e-07 -9.96552e-07 -1.78087e-06  2.12111e-08 -8.80616e-07 -1.92272e-06  -4.96986e-07 -5.06294e-07 -2.01248e-06  
            </DataArray>
            <DataArray type="Float64" Name="Traction" NumberOfComponents="3" format="ascii">
               -2.70293e-06 -2.71491e-06 -2.10267e-05  -7.67022e-07 -4.82363e-06 -2.10267e-05  9.60065e-07 -5.97674e-06 -2.10267e-05  1.111e-06 -3.9724e-06 -2.10267e-05  2.91726e-06 -3.98628e-06 -2.10267e-05  -4.83982e-06 -7.67798e-07 -2.10267e-05  -1.9507e-06 -1.93351e-06 -2.10267e-05  1.23696e-06 -3.00126e-06 -2.10267e-05  1.76832e-06 -1.77739e-06 -2.10267e-05  3.87645e-06 -1.75385e-06 -2.10267e-05  -6.06712e-06 9.91951e-07 -2.10267e-05  -3.0777e-06 1.22607e-06 -2.10267e-05  1.22395e-06 1.22591e-06 -2.10267e-05  2.97553e-06 5.19032e-07 -2.10267e-05  6.01721e-06 -2.22135e-07 -2.10267e-05  -3.98951e-06 1.15816e-06 -2.10267e-05  -1.80023e-06 1.74764e-06 -2.10267e-05  5.11732e-07 2.94389e-06 -2.10267e-05  1.84475e-06 1.85211e-06 -2.10267e-05  4.726e-06 6.52685e-07 -2.10267e-05  -3.86719e-06 2.98378e-06 -2.10267e-05  -1.63899e-06 3.84453e-06 -2.10267e-05  -5.40188e-08 5.96211e-06 -2.10267e-05  9.00794e-07 4.78324e-06 -2.10267e-05  2.77208e-06 2.57995e-06 -2.10267e-05  
            </DataArray>
         </PointData> 
      </Piece>
   </UnstructuredGrid> 
</VTKFile>
