<?xml version="1.0"?>
<VTKFile type="UnstructuredGrid" version="0.1" byte_order="LittleEndian">
   <UnstructuredGrid>
      <Piece NumberOfPoints="25" NumberOfCells="0" > 
         <Points> 
            <DataArray type="Float64" Name="Position" NumberOfComponents="3" format="ascii"> 
               0  0  20  
               0.75  0  20  
               1.5  0  20  
               2.25  0  20  
               3  0  20  
               0  0.75  20  
               0.75  0.75  20  
               1.5  0.75  20  
               2.25  0.75  20  
               3  0.75  20  
               0  1.5  20  
               0.75  1.5  20  
               1.5  1.5  20  
               2.25  1.5  20  
               3  1.5  20  
               0  2.25  20  
               0.75  2.25  20  
               1.5  2.25  20  
               2.25  2.25  20  
               3  2.25  20  
               0  3  20  
               0.75  3  20  
               1.5  3  20  
               2.25  3  20  
               3  3  20  
            </DataArray>
         </Points> 

         <Cells>
            <DataArray type="Int32" Name="connectivity" NumberOfComponents="1" format="ascii">
               
            </DataArray> 
            <DataArray type="Int32" Name="offsets" NumberOfComponents="1" format="ascii">
               
            </DataArray>
            <DataArray type="UInt8"  Name="types" NumberOfComponents="1" format="ascii">
               
            </DataArray>
         </Cells>
         <PointData Scalars="Rank " Vectors="Displacement Velocity Traction ">
            <DataArray type="UInt32" Name="Rank" NumberOfComponents="1" format="ascii">
               0 0 0 0 0 0 0 0 0 0 0 0 0 0 0 0 0 0 0 0 0 0 0 0 0 
            </DataArray>
            <DataArray type="Float64" Name="Displacement" NumberOfComponents="3" format="ascii">
               0.000732571 0.000735779 -0.00339146  4.34608e-05 0.00123853 -0.00339191  -0.000394903 0.00146346 -0.00327767  -0.00038066 0.00106517 -0.00341448  -0.00080878 0.00134674 -0.00342056  0.00122112 4.45675e-05 -0.00338096  0.000382343 0.0003951 -0.0031277  -0.000137707 0.000621482 -0.00292003  -0.000412888 0.000420815 -0.00325147  -0.00104021 0.000707408 -0.00334616  0.00144395 -0.000387717 -0.00326487  0.000606695 -0.000132452 -0.00291956  -1.38134e-05 -6.92765e-06 -0.00251772  -0.000596687 9.60199e-05 -0.00293612  -0.00142491 0.000383693 -0.00327282  0.0010448 -0.000358956 -0.00340309  0.000406571 -0.000400268 -0.00325229  8.82823e-05 -0.000583464 -0.00293611  -0.00038387 -0.000369577 -0.00315847  -0.00121606 -8.54207e-05 -0.00339182  0.00132412 -0.00078117 -0.00339276  0.000688081 -0.00101926 -0.00333515  0.000375891 -0.00140568 -0.00326062  -8.82213e-05 -0.00119622 -0.00337958  -0.000771938 -0.000766148 -0.00337954  
            </DataArray>
            <DataArray type="Float64" Name="Velocity" NumberOfComponents="3" format="ascii">
               0.000743043 0.000729456 -0.00338522  6.42881e-05 0.00121556 -0.00336082  -0.000330714 0.00144903 -0.00324823  -0.000328569 0.00105599 -0.00338651  -0.000774559 0.00126735 -0.00339845  0.00121731 5.09049e-05 -0.00335909  0.000378924 0.000375611 -0.00308453  -0.000104643 0.000588565 -0.00286363  -0.000369312 0.000395565 -0.00320155  -0.001009 0.000640941 -0.00332273  0.00144591 -0.000339772 -0.00324087  0.000588404 -0.000113047 -0.0028613  4.39162e-06 -1.5877e-06 -0.00244413  -0.000550356 8.79581e-05 -0.00288262  -0.00139822 0.000347398 -0.0032438  0.00104667 -0.000325323 -0.00337573  0.000393022 -0.000371345 -0.00319831  9.21716e-05 -0.000550275 -0.00288092  -0.000349783 -0.000348376 -0.00311831  -0.00118249 -8.22255e-05 -0.00336186  0.00125501 -0.000762713 -0.00337703  0.000633826 -0.00100354 -0.00331358  0.000350326 -0.00139325 -0.00323581  -7.24817e-05 -0.00117532 -0.00335697  -0.000743639 -0.000753151 -0.00336722  
            </DataArray>
            <DataArray type="Float64" Name="Traction" NumberOfComponents="3" format="ascii">
               -0.00433296 -0.00439005 -0.0406895  -0.00102438 -0.00846127 -0.0406895  0.00277624 -0.00986471 -0.0406895  0.0021143 -0.00634448 -0.0406895  0.00391217 -0.0074154 -0.0406895  -0.00832739 -0.00102311 -0.0406895  -0.00337927 -0.00343453 -0.0406895  0.00296279 -0.00538957 -0.0406895  0.00332556 -0.00350325 -0.0406895  0.00566638 -0.00380484 -0.0406895  -0.00973307 0.00282462 -0.0406895  -0.00534277 0.00301852 -0.0406895  0.0023109 0.00236935 -0.0406895  0.00515917 0.000641748 -0.0406895  0.0094002 -0.000685473 -0.0406895  -0.00621671 0.00199003 -0.0406895  -0.00347616 0.00327455 -0.0406895  0.000572635 0.0051176 -0.0406895  0.00328405 0.00325456 -0.0406895  0.00803251 0.00126763 -0.0406895  -0.00725257 0.0036655 -0.0406895  -0.00375165 0.00550256 -0.0406895  -0.000768633 0.00926267 -0.0406895  0.00121711 0.0079108 -0.0406895  0.00444996 0.00442167 -0.0406895  
            </DataArray>
         </PointData> 
      </Piece>
   </UnstructuredGrid> 
</VTKFile>
