<?xml version="1.0"?>
<VTKFile type="UnstructuredGrid" version="0.1" byte_order="LittleEndian">
   <UnstructuredGrid>
      <Piece NumberOfPoints="25" NumberOfCells="0" > 
         <Points> 
            <DataArray type="Float64" Name="Position" NumberOfComponents="3" format="ascii"> 
               0  0  15  
               0.75  0  15  
               1.5  0  15  
               2.25  0  15  
               3  0  15  
               0  0.75  15  
               0.75  0.75  15  
               1.5  0.75  15  
               2.25  0.75  15  
               3  0.75  15  
               0  1.5  15  
               0.75  1.5  15  
               1.5  1.5  15  
               2.25  1.5  15  
               3  1.5  15  
               0  2.25  15  
               0.75  2.25  15  
               1.5  2.25  15  
               2.25  2.25  15  
               3  2.25  15  
               0  3  15  
               0.75  3  15  
               1.5  3  15  
               2.25  3  15  
               3  3  15  
            </DataArray>
         </Points> 

         <Cells>
            <DataArray type="Int32" Name="connectivity" NumberOfComponents="1" format="ascii">
               
            </DataArray> 
            <DataArray type="Int32" Name="offsets" NumberOfComponents="1" format="ascii">
               
            </DataArray>
            <DataArray type="UInt8"  Name="types" NumberOfComponents="1" format="ascii">
               
            </DataArray>
         </Cells>
         <PointData Scalars="Rank " Vectors="Displacement Velocity Traction ">
            <DataArray type="UInt32" Name="Rank" NumberOfComponents="1" format="ascii">
               0 0 0 0 0 0 0 0 0 0 0 0 0 0 0 0 0 0 0 0 0 0 0 0 0 
            </DataArray>
            <DataArray type="Float64" Name="Displacement" NumberOfComponents="3" format="ascii">
               2.90535e-06 2.60742e-06 -2.47462e-06  2.83104e-06 -1.30613e-07 -2.35723e-06  2.43543e-06 -3.80347e-07 -2.18319e-06  2.0195e-06 7.36381e-08 -2.30701e-06  1.90476e-06 -1.65578e-07 -2.48258e-06  -2.88531e-08 2.35288e-06 -2.35803e-06  5.40042e-08 -1.2685e-07 -1.98939e-06  -2.98658e-09 -2.86925e-07 -1.74682e-06  -1.02602e-07 1.45611e-07 -2.04868e-06  -1.18405e-07 -3.53995e-07 -2.2678e-06  5.86554e-07 1.81509e-06 -2.18205e-06  4.76912e-07 -2.29822e-08 -1.74672e-06  -1.70558e-07 -3.87333e-07 -1.36157e-06  -8.66828e-07 3.2904e-07 -1.75837e-06  -1.20055e-06 -6.19602e-07 -2.18118e-06  4.43697e-07 1.38864e-06 -2.30369e-06  4.09783e-07 1.13445e-07 -2.04925e-06  3.53522e-07 -6.63367e-07 -1.75717e-06  3.53925e-07 3.96054e-07 -2.00396e-06  2.4564e-07 -4.78661e-07 -2.35138e-06  -1.49515e-06 1.18892e-06 -2.48e-06  -1.70431e-06 2.14199e-07 -2.27058e-06  -2.38567e-06 -6.82331e-07 -2.18424e-06  -2.66481e-06 2.61247e-07 -2.3549e-06  -2.4691e-06 -3.88295e-07 -2.47419e-06  
            </DataArray>
            <DataArray type="Float64" Name="Velocity" NumberOfComponents="3" format="ascii">
               4.91472e-06 3.13548e-06 -2.50275e-06  4.84478e-06 -7.30853e-08 -2.53961e-06  4.18228e-06 -9.04199e-07 -2.45692e-06  3.49416e-06 1.62187e-07 -2.51585e-06  3.33256e-06 2.11141e-07 -2.49635e-06  2.75778e-07 2.84632e-06 -2.54027e-06  3.89256e-07 -2.33459e-08 -2.39306e-06  2.19968e-07 -6.33062e-07 -2.34786e-06  -1.07962e-07 3.05324e-07 -2.51447e-06  -1.85093e-07 -5.12842e-08 -2.42066e-06  8.802e-07 2.37266e-06 -2.45319e-06  7.37351e-07 5.63904e-08 -2.3479e-06  -1.27373e-07 -6.9308e-07 -2.20192e-06  -1.15386e-06 5.39206e-07 -2.36517e-06  -1.63891e-06 -3.78751e-07 -2.43687e-06  8.88655e-07 1.9427e-06 -2.50738e-06  8.1232e-07 1.58484e-07 -2.51527e-06  6.15996e-07 -9.51269e-07 -2.36182e-06  5.48893e-07 6.72241e-07 -2.42014e-06  3.84007e-07 -1.57608e-08 -2.52472e-06  -2.24694e-06 1.71059e-06 -2.49145e-06  -2.47959e-06 2.74519e-07 -2.42792e-06  -3.19109e-06 -9.9114e-07 -2.44383e-06  -3.21922e-06 4.85075e-07 -2.53299e-06  -2.82255e-06 2.66195e-07 -2.48832e-06  
            </DataArray>
            <DataArray type="Float64" Name="Traction" NumberOfComponents="3" format="ascii">
               9.41507e-05 9.26647e-05 -0.000161293  -3.50194e-05 6.6903e-05 -0.000161293  -1.75982e-05 -4.77274e-06 -0.000161293  7.5074e-06 4.4769e-05 -0.000161293  -9.82983e-05 0.000113088 -0.000161293  7.89415e-05 -3.09461e-05 -0.000161293  1.40293e-06 -8.25762e-06 -0.000161293  -5.44585e-07 -6.07392e-06 -0.000161293  6.41722e-06 -7.64601e-07 -0.000161293  -0.000119017 1.38182e-05 -0.000161293  7.95677e-05 -8.52155e-06 -0.000161293  5.12679e-06 -4.22267e-06 -0.000161293  -8.63135e-08 -1.10625e-06 -0.000161293  2.04101e-05 3.58383e-06 -0.000161293  -0.000133429 8.91949e-06 -0.000161293  9.28208e-05 1.2207e-05 -0.000161293  4.04668e-06 1.05343e-05 -0.000161293  6.68852e-06 1.29876e-05 -0.000161293  1.01369e-05 9.46465e-06 -0.000161293  -7.07983e-05 -7.22237e-06 -0.000161293  9.75681e-05 -7.88388e-05 -0.000161293  7.09445e-06 -8.51947e-05 -0.000161293  1.24506e-05 -6.63297e-05 -0.000161293  1.27392e-05 -9.5686e-06 -0.000161293  1.96203e-05 2.24495e-06 -0.000161293  
            </DataArray>
         </PointData> 
      </Piece>
   </UnstructuredGrid> 
</VTKFile>
