<?xml version="1.0"?>
<VTKFile type="UnstructuredGrid" version="0.1" byte_order="LittleEndian">
   <UnstructuredGrid>
      <Piece NumberOfPoints="25" NumberOfCells="0" > 
         <Points> 
            <DataArray type="Float64" Name="Position" NumberOfComponents="3" format="ascii"> 
               0  0  20  
               0.75  0  20  
               1.5  0  20  
               2.25  0  20  
               3  0  20  
               0  0.75  20  
               0.75  0.75  20  
               1.5  0.75  20  
               2.25  0.75  20  
               3  0.75  20  
               0  1.5  20  
               0.75  1.5  20  
               1.5  1.5  20  
               2.25  1.5  20  
               3  1.5  20  
               0  2.25  20  
               0.75  2.25  20  
               1.5  2.25  20  
               2.25  2.25  20  
               3  2.25  20  
               0  3  20  
               0.75  3  20  
               1.5  3  20  
               2.25  3  20  
               3  3  20  
            </DataArray>
         </Points> 

         <Cells>
            <DataArray type="Int32" Name="connectivity" NumberOfComponents="1" format="ascii">
               
            </DataArray> 
            <DataArray type="Int32" Name="offsets" NumberOfComponents="1" format="ascii">
               
            </DataArray>
            <DataArray type="UInt8"  Name="types" NumberOfComponents="1" format="ascii">
               
            </DataArray>
         </Cells>
         <PointData Scalars="Rank " Vectors="Displacement Velocity Traction ">
            <DataArray type="UInt32" Name="Rank" NumberOfComponents="1" format="ascii">
               0 0 0 0 0 0 0 0 0 0 0 0 0 0 0 0 0 0 0 0 0 0 0 0 0 
            </DataArray>
            <DataArray type="Float64" Name="Displacement" NumberOfComponents="3" format="ascii">
               -2.56709e-06 -2.6908e-06 2.5683e-06  6.5871e-07 -4.05502e-06 1.71928e-06  2.14367e-06 -3.64672e-06 1.20425e-06  2.13461e-06 -2.86621e-06 1.27839e-06  3.74953e-06 -4.30267e-06 2.42016e-06  -4.19e-06 4.91843e-07 1.81393e-06  -1.36703e-06 -1.35601e-06 2.4784e-07  1.62742e-07 -1.82787e-06 -1.2826e-07  1.17213e-06 -1.30306e-06 3.50938e-07  2.87461e-06 -2.25407e-06 1.03456e-06  -3.79236e-06 2.09215e-06 1.37339e-06  -1.89214e-06 1.36953e-07 -1.0533e-07  -1.9234e-07 -1.28185e-07 -9.33133e-07  1.30529e-06 -1.47119e-07 -1.47506e-07  3.11464e-06 -1.69928e-06 9.44517e-07  -3.09481e-06 2.12346e-06 1.45733e-06  -1.46349e-06 1.2304e-06 3.42445e-07  -2.99989e-07 1.5604e-06 -1.62654e-07  9.20379e-07 1.29464e-06 3.03553e-07  3.28599e-06 -3.23479e-07 1.36988e-06  -4.73991e-06 3.77211e-06 2.70088e-06  -2.68874e-06 3.04285e-06 1.10567e-06  -2.00352e-06 3.49053e-06 1.12365e-06  -6.34938e-07 3.76468e-06 1.64043e-06  2.07992e-06 2.45854e-06 2.00273e-06  
            </DataArray>
            <DataArray type="Float64" Name="Velocity" NumberOfComponents="3" format="ascii">
               -8.46333e-07 -1.32501e-06 3.83159e-07  -3.97324e-07 -1.8826e-07 1.66816e-06  8.31531e-07 1.542e-06 2.61132e-06  1.29111e-06 2.66204e-07 2.27286e-06  2.89711e-07 -1.6535e-06 3.48461e-07  2.92361e-07 -9.11754e-07 1.54135e-06  -5.57505e-07 -9.70254e-07 3.51673e-06  6.75633e-07 -5.88193e-07 5.23508e-06  1.39589e-06 -1.29154e-06 4.34865e-06  -3.4535e-07 -1.74851e-06 1.61899e-06  1.89186e-06 3.33454e-07 2.62736e-06  -2.68467e-07 2.98799e-07 5.29664e-06  5.76121e-07 3.30634e-07 6.93757e-06  7.29961e-07 4.1193e-08 5.22851e-06  -1.86262e-06 3.47909e-08 2.0956e-06  3.40809e-07 9.95552e-07 2.37039e-06  -1.1352e-06 1.22085e-06 4.37824e-06  1.75125e-07 7.69419e-07 5.26777e-06  8.57169e-07 9.76184e-07 3.66524e-06  -5.50621e-07 1.07841e-06 1.20669e-06  -1.83719e-06 1.25557e-07 5.85013e-07  -1.90768e-06 -3.77905e-07 1.72011e-06  1.42776e-08 -1.64284e-06 2.34225e-06  1.16948e-06 -2.2539e-07 1.44671e-06  1.07763e-06 1.01559e-06 -2.72715e-07  
            </DataArray>
            <DataArray type="Float64" Name="Traction" NumberOfComponents="3" format="ascii">
               9.7179e-06 8.97818e-06 4.36442e-06  -9.70358e-06 3.28066e-05 4.36442e-06  -1.58963e-05 2.60227e-05 4.36442e-06  -1.75082e-05 2.0152e-05 4.36442e-06  -3.10922e-05 3.88943e-05 4.36442e-06  3.7514e-05 -1.0132e-05 4.36442e-06  1.50915e-05 1.13371e-05 4.36442e-06  -6.64477e-07 1.31288e-05 4.36442e-06  -8.01069e-06 9.96118e-06 4.36442e-06  -1.92882e-05 2.16952e-05 4.36442e-06  2.8656e-05 -1.73671e-05 4.36442e-06  1.47753e-05 -2.9814e-06 4.36442e-06  -1.01531e-06 -1.3583e-06 4.36442e-06  -8.82067e-06 1.94643e-06 4.36442e-06  -2.03552e-05 1.53881e-05 4.36442e-06  2.51649e-05 -2.05609e-05 4.36442e-06  1.27981e-05 -9.85884e-06 4.36442e-06  1.37977e-06 -1.07961e-05 4.36442e-06  -9.03271e-06 -9.51347e-06 4.36442e-06  -2.52899e-05 6.46991e-06 4.36442e-06  4.37296e-05 -3.49178e-05 4.36442e-06  2.43732e-05 -2.10487e-05 4.36442e-06  1.44608e-05 -2.29501e-05 4.36442e-06  6.23625e-06 -2.69747e-05 4.36442e-06  -9.81096e-06 -1.15899e-05 4.36442e-06  
            </DataArray>
         </PointData> 
      </Piece>
   </UnstructuredGrid> 
</VTKFile>
