<?xml version="1.0"?>
<VTKFile type="UnstructuredGrid" version="0.1" byte_order="LittleEndian">
   <UnstructuredGrid>
      <Piece NumberOfPoints="25" NumberOfCells="0" > 
         <Points> 
            <DataArray type="Float64" Name="Position" NumberOfComponents="3" format="ascii"> 
               0  0  20  
               0.75  0  20  
               1.5  0  20  
               2.25  0  20  
               3  0  20  
               0  0.75  20  
               0.75  0.75  20  
               1.5  0.75  20  
               2.25  0.75  20  
               3  0.75  20  
               0  1.5  20  
               0.75  1.5  20  
               1.5  1.5  20  
               2.25  1.5  20  
               3  1.5  20  
               0  2.25  20  
               0.75  2.25  20  
               1.5  2.25  20  
               2.25  2.25  20  
               3  2.25  20  
               0  3  20  
               0.75  3  20  
               1.5  3  20  
               2.25  3  20  
               3  3  20  
            </DataArray>
         </Points> 

         <Cells>
            <DataArray type="Int32" Name="connectivity" NumberOfComponents="1" format="ascii">
               
            </DataArray> 
            <DataArray type="Int32" Name="offsets" NumberOfComponents="1" format="ascii">
               
            </DataArray>
            <DataArray type="UInt8"  Name="types" NumberOfComponents="1" format="ascii">
               
            </DataArray>
         </Cells>
         <PointData Scalars="Rank " Vectors="Displacement Velocity Traction ">
            <DataArray type="UInt32" Name="Rank" NumberOfComponents="1" format="ascii">
               0 0 0 0 0 0 0 0 0 0 0 0 0 0 0 0 0 0 0 0 0 0 0 0 0 
            </DataArray>
            <DataArray type="Float64" Name="Displacement" NumberOfComponents="3" format="ascii">
               -2.14215e-06 -2.5454e-06 3.4554e-07  3.70973e-07 -2.68885e-06 4.32656e-07  2.02977e-06 -1.22686e-06 6.19519e-07  2.34054e-06 -1.54092e-06 4.0922e-07  2.77264e-06 -3.67483e-06 2.41261e-07  -2.50159e-06 -1.041e-07 4.17277e-07  -1.15557e-06 -1.43393e-06 4.83492e-07  4.81746e-07 -1.48031e-06 1.3092e-06  1.60007e-06 -1.57916e-06 9.75612e-07  1.62097e-06 -2.46739e-06 -9.55306e-08  -1.08561e-06 1.65741e-06 7.41001e-07  -1.27605e-06 2.01986e-07 1.3604e-06  2.44957e-07 9.86468e-08 1.90927e-06  1.19725e-06 -3.81497e-09 1.2702e-06  6.88178e-07 -1.07334e-06 1.18873e-07  -1.62972e-06 2.08415e-06 6.05716e-07  -1.55498e-06 1.50297e-06 9.96457e-07  1.60084e-08 1.39332e-06 1.28684e-06  1.09166e-06 1.4252e-06 6.02158e-07  1.68813e-06 3.83703e-07 -1.11182e-07  -4.11916e-06 2.60215e-06 5.7137e-07  -2.88039e-06 1.67528e-06 1.92193e-09  -1.2972e-06 1.07817e-06 3.93361e-07  2.05963e-07 2.23947e-06 2.34061e-07  1.93616e-06 2.18608e-06 -4.60852e-07  
            </DataArray>
            <DataArray type="Float64" Name="Velocity" NumberOfComponents="3" format="ascii">
               3.02402e-06 2.33317e-06 -1.10179e-05  -7.83892e-07 6.54492e-06 -8.31194e-06  -1.4946e-06 9.28633e-06 -6.23506e-06  -5.84232e-07 5.79285e-06 -7.15627e-06  -4.78338e-06 4.9294e-06 -1.07582e-05  7.41993e-06 -1.55311e-06 -8.65932e-06  1.67343e-06 8.61662e-07 -3.59506e-06  6.31027e-07 2.3427e-06 -1.60381e-07  2.45374e-07 3.20062e-07 -2.85437e-06  -5.35851e-06 1.16686e-06 -7.54199e-06  1.0173e-05 -2.33627e-06 -6.48105e-06  3.18148e-06 -5.78161e-08 -1.09109e-07  1.29429e-06 6.40677e-07 4.24634e-06  -1.41712e-06 6.03878e-07 -2.43973e-07  -8.91826e-06 2.78777e-06 -6.69748e-06  6.35568e-06 -1.35435e-06 -7.20764e-06  9.79902e-07 -2.48611e-07 -2.75618e-06  1.22408e-06 -1.72829e-06 -1.50266e-07  -2.85946e-07 -6.10871e-07 -3.49084e-06  -6.68754e-06 1.87367e-06 -8.62447e-06  5.13223e-06 -5.48674e-06 -1.08484e-05  1.46371e-06 -5.84206e-06 -7.55126e-06  3.17071e-06 -9.11575e-06 -6.57204e-06  2.35649e-06 -6.74908e-06 -8.58147e-06  -2.02718e-06 -2.52224e-06 -1.12968e-05  
            </DataArray>
            <DataArray type="Float64" Name="Traction" NumberOfComponents="3" format="ascii">
               -8.46676e-07 -1.24137e-06 -0.000119353  -1.47551e-05 1.78283e-05 -0.000119353  -1.73893e-05 5.3771e-09 -0.000119353  -1.37596e-05 1.83373e-06 -0.000119353  -1.49181e-05 3.01886e-05 -0.000119353  2.31885e-05 -1.57667e-05 -0.000119353  1.10742e-05 5.69153e-06 -0.000119353  3.57399e-06 1.70197e-06 -0.000119353  1.34141e-07 4.37417e-06 -0.000119353  2.65248e-06 2.19392e-05 -0.000119353  4.23462e-06 -2.0126e-05 -0.000119353  5.35475e-06 -4.25822e-07 -0.000119353  5.1776e-06 2.82734e-06 -0.000119353  5.00863e-06 5.07807e-06 -0.000119353  1.01342e-05 1.81602e-05 -0.000119353  1.05889e-05 -1.8418e-05 -0.000119353  1.02659e-05 -3.09615e-06 -0.000119353  6.64007e-06 6.2614e-07 -0.000119353  2.26877e-07 -2.46285e-06 -0.000119353  -3.04231e-06 1.11939e-05 -0.000119353  3.86182e-05 -2.05287e-05 -0.000119353  2.73966e-05 -1.22947e-07 -0.000119353  1.9074e-05 5.23584e-06 -0.000119353  1.20881e-05 -7.38785e-06 -0.000119353  3.24481e-06 1.02984e-07 -0.000119353  
            </DataArray>
         </PointData> 
      </Piece>
   </UnstructuredGrid> 
</VTKFile>
