<?xml version="1.0"?>
<VTKFile type="UnstructuredGrid" version="0.1" byte_order="LittleEndian">
   <UnstructuredGrid>
      <Piece NumberOfPoints="25" NumberOfCells="0" > 
         <Points> 
            <DataArray type="Float64" Name="Position" NumberOfComponents="3" format="ascii"> 
               0  0  20  
               0.75  0  20  
               1.5  0  20  
               2.25  0  20  
               3  0  20  
               0  0.75  20  
               0.75  0.75  20  
               1.5  0.75  20  
               2.25  0.75  20  
               3  0.75  20  
               0  1.5  20  
               0.75  1.5  20  
               1.5  1.5  20  
               2.25  1.5  20  
               3  1.5  20  
               0  2.25  20  
               0.75  2.25  20  
               1.5  2.25  20  
               2.25  2.25  20  
               3  2.25  20  
               0  3  20  
               0.75  3  20  
               1.5  3  20  
               2.25  3  20  
               3  3  20  
            </DataArray>
         </Points> 

         <Cells>
            <DataArray type="Int32" Name="connectivity" NumberOfComponents="1" format="ascii">
               
            </DataArray> 
            <DataArray type="Int32" Name="offsets" NumberOfComponents="1" format="ascii">
               
            </DataArray>
            <DataArray type="UInt8"  Name="types" NumberOfComponents="1" format="ascii">
               
            </DataArray>
         </Cells>
         <PointData Scalars="Rank " Vectors="Displacement Velocity Traction ">
            <DataArray type="UInt32" Name="Rank" NumberOfComponents="1" format="ascii">
               0 0 0 0 0 0 0 0 0 0 0 0 0 0 0 0 0 0 0 0 0 0 0 0 0 
            </DataArray>
            <DataArray type="Float64" Name="Displacement" NumberOfComponents="3" format="ascii">
               8.07172e-06 7.06625e-06 -3.43476e-05  -4.45594e-07 1.57103e-05 -3.01814e-05  -3.50696e-06 2.11107e-05 -2.63679e-05  -1.70359e-06 1.37648e-05 -2.86592e-05  -9.97847e-06 1.35232e-05 -3.34852e-05  1.69224e-05 -1.54049e-06 -3.0777e-05  4.60128e-06 3.33073e-06 -2.17832e-05  4.0433e-07 6.49735e-06 -1.53151e-05  -1.18328e-06 2.31386e-06 -2.14312e-05  -1.25145e-05 4.79209e-06 -2.86666e-05  2.26261e-05 -4.66043e-06 -2.69214e-05  7.97858e-06 -5.63998e-07 -1.52808e-05  2.10138e-06 1.07914e-06 -6.28669e-06  -4.7498e-06 1.49103e-06 -1.55615e-05  -2.00146e-05 5.79893e-06 -2.68508e-05  1.49323e-05 -3.21241e-06 -2.89067e-05  3.5584e-06 -2.00578e-06 -2.126e-05  2.54476e-06 -5.2322e-06 -1.54338e-05  -2.00973e-06 -2.54346e-06 -2.17467e-05  -1.5437e-05 2.331e-06 -3.04073e-05  1.39882e-05 -1.15995e-05 -3.40882e-05  5.3841e-06 -1.34737e-05 -2.88467e-05  6.37824e-06 -2.03987e-05 -2.68286e-05  2.88312e-06 -1.56198e-05 -3.04735e-05  -6.58776e-06 -7.16642e-06 -3.43582e-05  
            </DataArray>
            <DataArray type="Float64" Name="Velocity" NumberOfComponents="3" format="ascii">
               2.07455e-05 2.04702e-05 -7.24342e-05  -7.83876e-07 3.60701e-05 -6.6636e-05  -1.15189e-05 4.21481e-05 -6.06586e-05  -9.12108e-06 2.95466e-05 -6.46478e-05  -2.4134e-05 3.56056e-05 -7.03794e-05  3.71081e-05 -9.52095e-07 -6.74729e-05  1.1642e-05 1.06276e-05 -5.31602e-05  -1.46422e-06 1.6578e-05 -4.41531e-05  -7.64655e-06 9.34769e-06 -5.47312e-05  -2.75766e-05 1.65763e-05 -6.28372e-05  4.39517e-05 -1.19422e-05 -6.18551e-05  1.81867e-05 -1.89536e-06 -4.42683e-05  2.3167e-06 1.42342e-06 -2.96784e-05  -1.31206e-05 2.8264e-06 -4.45356e-05  -3.88082e-05 1.26334e-05 -5.99094e-05  3.15825e-05 -1.08168e-05 -6.56487e-05  1.1096e-05 -8.48314e-06 -5.45628e-05  4.12335e-06 -1.4092e-05 -4.44304e-05  -7.63576e-06 -9.01135e-06 -5.35316e-05  -3.28778e-05 1.63565e-06 -6.53839e-05  3.73711e-05 -2.64191e-05 -7.24826e-05  1.83868e-05 -2.90882e-05 -6.34818e-05  1.37921e-05 -4.01633e-05 -6.06625e-05  2.42611e-06 -3.43921e-05 -6.63744e-05  -1.85853e-05 -1.95919e-05 -7.01668e-05  
            </DataArray>
            <DataArray type="Float64" Name="Traction" NumberOfComponents="3" format="ascii">
               -9.55445e-05 -8.87071e-05 -0.000801792  -4.41871e-05 -0.000127597 -0.000801792  8.44673e-06 -0.000181944 -0.000801792  2.39071e-05 -0.000126674 -0.000801792  8.75394e-05 -9.32353e-05 -0.000801792  -0.000127472 -4.06133e-05 -0.000801792  -4.66487e-05 -4.99077e-05 -0.000801792  4.46693e-05 -9.13814e-05 -0.000801792  5.93908e-05 -5.47187e-05 -0.000801792  0.000126854 -2.5941e-05 -0.000801792  -0.000182141 6.02215e-06 -0.000801792  -8.86039e-05 3.7992e-05 -0.000801792  4.36799e-05 3.75012e-05 -0.000801792  9.65615e-05 1.44418e-05 -0.000801792  0.000190231 1.04653e-05 -0.000801792  -0.000117591 2.53787e-05 -0.000801792  -4.58272e-05 5.8058e-05 -0.000801792  2.12517e-05 9.09083e-05 -0.000801792  5.9549e-05 5.53579e-05 -0.000801792  0.000146401 3.58716e-05 -0.000801792  -8.3982e-05 9.25065e-05 -0.000801792  -1.74538e-05 0.000131581 -0.000801792  1.78632e-05 0.000188454 -0.000801792  3.89898e-05 0.000143595 -0.000801792  9.12191e-05 8.98107e-05 -0.000801792  
            </DataArray>
         </PointData> 
      </Piece>
   </UnstructuredGrid> 
</VTKFile>
