<?xml version="1.0"?>
<VTKFile type="UnstructuredGrid" version="0.1" byte_order="LittleEndian">
   <UnstructuredGrid>
      <Piece NumberOfPoints="25" NumberOfCells="0" > 
         <Points> 
            <DataArray type="Float64" Name="Position" NumberOfComponents="3" format="ascii"> 
               0  0  15  
               0.75  0  15  
               1.5  0  15  
               2.25  0  15  
               3  0  15  
               0  0.75  15  
               0.75  0.75  15  
               1.5  0.75  15  
               2.25  0.75  15  
               3  0.75  15  
               0  1.5  15  
               0.75  1.5  15  
               1.5  1.5  15  
               2.25  1.5  15  
               3  1.5  15  
               0  2.25  15  
               0.75  2.25  15  
               1.5  2.25  15  
               2.25  2.25  15  
               3  2.25  15  
               0  3  15  
               0.75  3  15  
               1.5  3  15  
               2.25  3  15  
               3  3  15  
            </DataArray>
         </Points> 

         <Cells>
            <DataArray type="Int32" Name="connectivity" NumberOfComponents="1" format="ascii">
               
            </DataArray> 
            <DataArray type="Int32" Name="offsets" NumberOfComponents="1" format="ascii">
               
            </DataArray>
            <DataArray type="UInt8"  Name="types" NumberOfComponents="1" format="ascii">
               
            </DataArray>
         </Cells>
         <PointData Scalars="Rank " Vectors="Displacement Velocity Traction ">
            <DataArray type="UInt32" Name="Rank" NumberOfComponents="1" format="ascii">
               0 0 0 0 0 0 0 0 0 0 0 0 0 0 0 0 0 0 0 0 0 0 0 0 0 
            </DataArray>
            <DataArray type="Float64" Name="Displacement" NumberOfComponents="3" format="ascii">
               1.16561e-06 1.28052e-06 -1.36151e-06  1.12449e-06 -9.24486e-08 -1.2595e-06  9.65407e-07 -7.161e-08 -1.14574e-06  7.93656e-07 3.15388e-08 -1.23128e-06  7.40181e-07 -1.61151e-07 -1.36614e-06  -7.09487e-08 1.15199e-06 -1.25982e-06  -3.53492e-08 -9.97514e-08 -1.00601e-06  -3.75333e-08 -6.5904e-08 -8.21808e-07  -3.47285e-08 5.19038e-08 -1.02379e-06  -2.71624e-08 -2.50821e-07 -1.22204e-06  2.77153e-07 8.50208e-07 -1.1456e-06  2.14074e-07 -3.08264e-08 -8.21762e-07  -9.96835e-08 -1.40566e-07 -5.45245e-07  -4.12313e-07 1.38445e-07 -8.26613e-07  -5.63788e-07 -3.90757e-07 -1.14797e-06  1.52481e-07 6.24725e-07 -1.23051e-06  1.4101e-07 5.50874e-08 -1.02402e-06  1.47514e-07 -3.07824e-07 -8.26425e-07  1.68836e-07 1.58622e-07 -1.011e-06  1.21698e-07 -3.67075e-07 -1.25835e-06  -6.28963e-07 5.24854e-07 -1.36533e-06  -7.36192e-07 1.04025e-07 -1.22269e-06  -1.0997e-06 -3.23843e-07 -1.14886e-06  -1.3019e-06 9.18107e-08 -1.25927e-06  -1.23604e-06 -3.5928e-07 -1.36288e-06  
            </DataArray>
            <DataArray type="Float64" Name="Velocity" NumberOfComponents="3" format="ascii">
               2.45793e-06 2.27517e-06 -2.02636e-06  2.39692e-06 -9.3086e-08 -1.94186e-06  2.0657e-06 -3.78095e-07 -1.79601e-06  1.72107e-06 4.38475e-08 -1.88799e-06  1.62601e-06 -1.56309e-07 -2.04104e-06  -3.80221e-08 2.05436e-06 -1.94277e-06  4.00457e-08 -9.01457e-08 -1.65207e-06  -1.95794e-08 -2.82062e-07 -1.47921e-06  -1.23907e-07 1.12685e-07 -1.70588e-06  -1.43835e-07 -3.09317e-07 -1.85436e-06  4.58009e-07 1.59024e-06 -1.79518e-06  3.87612e-07 -1.72918e-08 -1.47906e-06  -1.46482e-07 -3.40063e-07 -1.20467e-06  -7.26918e-07 2.71319e-07 -1.48971e-06  -1.00402e-06 -5.13309e-07 -1.79535e-06  3.7139e-07 1.2153e-06 -1.88529e-06  3.47268e-07 8.8765e-08 -1.70644e-06  2.82035e-07 -5.43205e-07 -1.48872e-06  2.69033e-07 3.31633e-07 -1.66508e-06  1.79436e-07 -3.76408e-07 -1.93669e-06  -1.32403e-06 1.04165e-06 -2.03868e-06  -1.50432e-06 1.80142e-07 -1.85657e-06  -2.08152e-06 -5.37028e-07 -1.7979e-06  -2.32234e-06 2.27642e-07 -1.93964e-06  -2.16024e-06 -2.95416e-07 -2.02913e-06  
            </DataArray>
            <DataArray type="Float64" Name="Traction" NumberOfComponents="3" format="ascii">
               4.93362e-05 4.82048e-05 -0.000158203  -1.66697e-05 4.11662e-05 -0.000158203  -8.18992e-06 -1.77008e-06 -0.000158203  3.10754e-06 2.23998e-05 -0.000158203  -4.85436e-05 5.59829e-05 -0.000158203  3.59116e-05 -1.66787e-05 -0.000158203  -2.22354e-06 -6.02357e-06 -0.000158203  -3.60891e-07 -6.91088e-06 -0.000158203  5.06927e-06 -2.0984e-06 -0.000158203  -5.95676e-05 7.40345e-06 -0.000158203  3.84767e-05 -3.93638e-06 -0.000158203  -2.31333e-06 -2.49505e-06 -0.000158203  -9.89884e-07 -7.11012e-07 -0.000158203  1.45506e-05 1.87339e-06 -0.000158203  -6.66077e-05 5.52138e-06 -0.000158203  4.40213e-05 6.31788e-06 -0.000158203  -7.2627e-07 7.34844e-06 -0.000158203  3.66892e-06 1.05115e-05 -0.000158203  6.09675e-06 5.84764e-06 -0.000158203  -4.32163e-05 -3.23406e-06 -0.000158203  4.13075e-05 -3.24222e-05 -0.000158203  2.85807e-06 -4.39935e-05 -0.000158203  5.69358e-06 -3.27578e-05 -0.000158203  5.68467e-06 -7.25556e-06 -0.000158203  -3.11229e-06 -1.00105e-05 -0.000158203  
            </DataArray>
         </PointData> 
      </Piece>
   </UnstructuredGrid> 
</VTKFile>
