<?xml version="1.0"?>
<VTKFile type="UnstructuredGrid" version="0.1" byte_order="LittleEndian">
   <UnstructuredGrid>
      <Piece NumberOfPoints="25" NumberOfCells="0" > 
         <Points> 
            <DataArray type="Float64" Name="Position" NumberOfComponents="3" format="ascii"> 
               0  0  20  
               0.75  0  20  
               1.5  0  20  
               2.25  0  20  
               3  0  20  
               0  0.75  20  
               0.75  0.75  20  
               1.5  0.75  20  
               2.25  0.75  20  
               3  0.75  20  
               0  1.5  20  
               0.75  1.5  20  
               1.5  1.5  20  
               2.25  1.5  20  
               3  1.5  20  
               0  2.25  20  
               0.75  2.25  20  
               1.5  2.25  20  
               2.25  2.25  20  
               3  2.25  20  
               0  3  20  
               0.75  3  20  
               1.5  3  20  
               2.25  3  20  
               3  3  20  
            </DataArray>
         </Points> 

         <Cells>
            <DataArray type="Int32" Name="connectivity" NumberOfComponents="1" format="ascii">
               
            </DataArray> 
            <DataArray type="Int32" Name="offsets" NumberOfComponents="1" format="ascii">
               
            </DataArray>
            <DataArray type="UInt8"  Name="types" NumberOfComponents="1" format="ascii">
               
            </DataArray>
         </Cells>
         <PointData Scalars="Rank " Vectors="Displacement Velocity Traction ">
            <DataArray type="UInt32" Name="Rank" NumberOfComponents="1" format="ascii">
               0 0 0 0 0 0 0 0 0 0 0 0 0 0 0 0 0 0 0 0 0 0 0 0 0 
            </DataArray>
            <DataArray type="Float64" Name="Displacement" NumberOfComponents="3" format="ascii">
               4.24812e-08 4.24349e-08 -1.47936e-07  7.4834e-10 7.33405e-08 -1.33331e-07  -5.43957e-09 9.92603e-08 -1.19987e-07  -6.59055e-09 6.97389e-08 -1.32611e-07  -4.69747e-08 5.29409e-08 -1.47472e-07  7.33871e-08 7.63709e-10 -1.33333e-07  1.33638e-08 1.33774e-08 -9.85704e-08  -1.444e-09 2.43945e-08 -6.69478e-08  -1.22125e-08 1.18545e-08 -9.86209e-08  -6.94521e-08 1.10347e-08 -1.32651e-07  9.9233e-08 -5.425e-09 -1.19988e-07  2.43962e-08 -1.42318e-09 -6.69488e-08  1.39761e-09 1.39029e-09 -1.76516e-08  -2.27718e-08 1.49345e-09 -6.70903e-08  -9.81626e-08 5.9826e-09 -1.20196e-07  6.97082e-08 -6.59176e-09 -1.32607e-07  1.18497e-08 -1.22229e-08 -9.86245e-08  1.51703e-09 -2.27789e-08 -6.70949e-08  -1.29466e-08 -1.29363e-08 -9.86758e-08  -7.31607e-08 -1.43285e-09 -1.33362e-07  5.29566e-08 -4.69974e-08 -1.47464e-07  1.10307e-08 -6.94607e-08 -1.32657e-07  6.04034e-09 -9.82061e-08 -1.20212e-07  -1.45674e-09 -7.32784e-08 -1.33372e-07  -4.2488e-08 -4.25659e-08 -1.4786e-07  
            </DataArray>
            <DataArray type="Float64" Name="Velocity" NumberOfComponents="3" format="ascii">
               1.32432e-07 1.32162e-07 -4.81353e-07  5.08366e-10 2.33338e-07 -4.33108e-07  -2.8395e-08 3.09228e-07 -3.89931e-07  -3.05484e-08 2.15301e-07 -4.2906e-07  -1.54491e-07 1.84531e-07 -4.79743e-07  2.33602e-07 5.90087e-10 -4.33127e-07  4.82294e-08 4.83081e-08 -3.24512e-07  -7.2333e-09 8.7168e-08 -2.31543e-07  -4.25511e-08 4.10805e-08 -3.25156e-07  -2.13901e-07 5.24106e-08 -4.29085e-07  3.09068e-07 -2.831e-08 -3.89934e-07  8.71741e-08 -7.09913e-09 -2.31548e-07  6.57576e-09 6.53159e-09 -9.07349e-08  -7.9264e-08 7.45819e-09 -2.32288e-07  -3.03918e-07 3.0843e-08 -3.90905e-07  2.15105e-07 -3.05488e-08 -4.2903e-07  4.10452e-08 -4.26192e-08 -3.25177e-07  7.60479e-09 -7.93129e-08 -2.32308e-07  -4.61107e-08 -4.60653e-08 -3.25077e-07  -2.3226e-07 -3.81982e-09 -4.33236e-07  1.84609e-07 -1.54624e-07 -4.79691e-07  5.23906e-08 -2.13954e-07 -4.29122e-07  3.11644e-08 -3.04175e-07 -3.90995e-07  -3.93717e-09 -2.32957e-07 -4.33293e-07  -1.32667e-07 -1.33147e-07 -4.81112e-07  
            </DataArray>
            <DataArray type="Float64" Name="Traction" NumberOfComponents="3" format="ascii">
               -3.32483e-07 -3.38416e-07 2.45252e-06  -9.33693e-08 -5.74313e-07 2.45252e-06  6.67022e-08 -8.16045e-07 2.45252e-06  8.37066e-08 -5.55086e-07 2.45252e-06  3.21466e-07 -3.55137e-07 2.45252e-06  -5.75651e-07 -9.82739e-08 2.45252e-06  -2.27263e-07 -2.25624e-07 2.45252e-06  1.62748e-07 -3.80284e-07 2.45252e-06  2.21854e-07 -2.21606e-07 2.45252e-06  5.50681e-07 -1.08756e-07 2.45252e-06  -8.20922e-07 6.65779e-08 2.45252e-06  -3.83879e-07 1.62408e-07 2.45252e-06  2.34737e-07 2.33555e-07 2.45252e-06  3.82216e-07 1.38675e-07 2.45252e-06  8.23635e-07 4.85102e-08 2.45252e-06  -5.55964e-07 8.46581e-08 2.45252e-06  -2.22225e-07 2.20927e-07 2.45252e-06  1.38163e-07 3.79676e-07 2.45252e-06  2.22394e-07 2.24091e-07 2.45252e-06  5.73832e-07 9.04128e-08 2.45252e-06  -3.50665e-07 3.23429e-07 2.45252e-06  -1.04153e-07 5.49725e-07 2.45252e-06  5.82855e-08 8.18617e-07 2.45252e-06  1.05948e-07 5.77175e-07 2.45252e-06  3.3748e-07 3.25477e-07 2.45252e-06  
            </DataArray>
         </PointData> 
      </Piece>
   </UnstructuredGrid> 
</VTKFile>
