<?xml version="1.0"?>
<VTKFile type="UnstructuredGrid" version="0.1" byte_order="LittleEndian">
   <UnstructuredGrid>
      <Piece NumberOfPoints="25" NumberOfCells="0" > 
         <Points> 
            <DataArray type="Float64" Name="Position" NumberOfComponents="3" format="ascii"> 
               0  0  20  
               0.75  0  20  
               1.5  0  20  
               2.25  0  20  
               3  0  20  
               0  0.75  20  
               0.75  0.75  20  
               1.5  0.75  20  
               2.25  0.75  20  
               3  0.75  20  
               0  1.5  20  
               0.75  1.5  20  
               1.5  1.5  20  
               2.25  1.5  20  
               3  1.5  20  
               0  2.25  20  
               0.75  2.25  20  
               1.5  2.25  20  
               2.25  2.25  20  
               3  2.25  20  
               0  3  20  
               0.75  3  20  
               1.5  3  20  
               2.25  3  20  
               3  3  20  
            </DataArray>
         </Points> 

         <Cells>
            <DataArray type="Int32" Name="connectivity" NumberOfComponents="1" format="ascii">
               
            </DataArray> 
            <DataArray type="Int32" Name="offsets" NumberOfComponents="1" format="ascii">
               
            </DataArray>
            <DataArray type="UInt8"  Name="types" NumberOfComponents="1" format="ascii">
               
            </DataArray>
         </Cells>
         <PointData Scalars="Rank " Vectors="Displacement Velocity Traction ">
            <DataArray type="UInt32" Name="Rank" NumberOfComponents="1" format="ascii">
               0 0 0 0 0 0 0 0 0 0 0 0 0 0 0 0 0 0 0 0 0 0 0 0 0 
            </DataArray>
            <DataArray type="Float64" Name="Displacement" NumberOfComponents="3" format="ascii">
               6.83092e-07 6.85728e-07 -2.82157e-06  -3.89307e-08 1.23823e-06 -2.71607e-06  -4.84961e-07 1.44888e-06 -2.5338e-06  -4.16432e-07 1.02371e-06 -2.66406e-06  -8.64828e-07 1.33079e-06 -2.83068e-06  1.23603e-06 -3.60714e-08 -2.71683e-06  3.8439e-07 3.87722e-07 -2.33401e-06  -1.14282e-07 6.19545e-07 -2.09031e-06  -3.58384e-07 3.82059e-07 -2.41237e-06  -9.86404e-07 6.93882e-07 -2.60967e-06  1.43924e-06 -4.78936e-07 -2.53162e-06  6.18066e-07 -1.05538e-07 -2.09033e-06  2.41194e-08 2.2876e-08 -1.69009e-06  -5.52188e-07 1.03009e-07 -2.10456e-06  -1.37473e-06 4.81274e-07 -2.52775e-06  1.01146e-06 -4.16625e-07 -2.65925e-06  3.78696e-07 -3.6127e-07 -2.41305e-06  1.09292e-07 -5.57013e-07 -2.10275e-06  -3.52941e-07 -3.57908e-07 -2.35271e-06  -1.19364e-06 1.13352e-08 -2.70775e-06  1.32483e-06 -8.68579e-07 -2.82754e-06  6.93944e-07 -9.90937e-07 -2.61371e-06  4.91507e-07 -1.38911e-06 -2.53208e-06  1.16475e-08 -1.22082e-06 -2.71267e-06  -7.0499e-07 -7.1636e-07 -2.81944e-06  
            </DataArray>
            <DataArray type="Float64" Name="Velocity" NumberOfComponents="3" format="ascii">
               5.58899e-07 5.75084e-07 -2.49911e-06  -2.2007e-09 9.45466e-07 -2.59685e-06  -5.51878e-07 9.61165e-07 -2.56141e-06  -4.82861e-07 7.45583e-07 -2.59938e-06  -6.66801e-07 1.2619e-06 -2.48579e-06  9.26883e-07 5.36591e-09 -2.59633e-06  3.81879e-07 3.90503e-07 -2.54357e-06  -1.65265e-07 5.67123e-07 -2.56831e-06  -4.10278e-07 4.57629e-07 -2.68853e-06  -6.68889e-07 8.17043e-07 -2.48149e-06  9.39572e-07 -5.37825e-07 -2.55556e-06  5.62475e-07 -1.48072e-07 -2.56882e-06  -1.75273e-08 -1.88729e-08 -2.5013e-06  -5.23805e-07 1.28974e-07 -2.58757e-06  -8.62517e-07 5.2944e-07 -2.53103e-06  7.21871e-07 -4.83247e-07 -2.5882e-06  4.49867e-07 -4.13963e-07 -2.68932e-06  1.39904e-07 -5.3327e-07 -2.58331e-06  -3.49697e-07 -3.61369e-07 -2.57492e-06  -8.72334e-07 -2.15348e-08 -2.57831e-06  1.24487e-06 -6.73408e-07 -2.48052e-06  8.16188e-07 -6.79152e-07 -2.49111e-06  5.4546e-07 -8.90494e-07 -2.54015e-06  -2.18338e-08 -9.16188e-07 -2.58869e-06  -5.95144e-07 -6.061e-07 -2.4767e-06  
            </DataArray>
            <DataArray type="Float64" Name="Traction" NumberOfComponents="3" format="ascii">
               -5.12481e-06 -4.93003e-06 -2.67376e-05  -1.44501e-06 -9.09093e-06 -2.67376e-05  2.45284e-06 -1.03347e-05 -2.67376e-05  2.37158e-06 -6.73344e-06 -2.67376e-05  5.1137e-06 -8.46978e-06 -2.67376e-05  -9.12474e-06 -1.20245e-06 -2.67376e-05  -3.68185e-06 -3.62605e-06 -2.67376e-05  2.56022e-06 -5.48893e-06 -2.67376e-05  3.27565e-06 -3.44746e-06 -2.67376e-05  6.19476e-06 -4.16478e-06 -2.67376e-05  -1.05787e-05 2.66845e-06 -2.67376e-05  -5.70095e-06 2.53003e-06 -2.67376e-05  1.98132e-06 1.99761e-06 -2.67376e-05  5.46881e-06 3.46484e-07 -2.67376e-05  1.02962e-05 -1.15275e-06 -2.67376e-05  -6.77266e-06 2.59246e-06 -2.67376e-05  -3.52896e-06 3.24042e-06 -2.67376e-05  3.1087e-07 5.3997e-06 -2.67376e-05  3.35081e-06 3.39521e-06 -2.67376e-05  8.6444e-06 9.72969e-07 -2.67376e-05  -8.09716e-06 5.38997e-06 -2.67376e-05  -3.85875e-06 6.14458e-06 -2.67376e-05  -7.66694e-07 1.02152e-05 -2.67376e-05  1.51025e-06 8.87271e-06 -2.67376e-05  5.02205e-06 4.64939e-06 -2.67376e-05  
            </DataArray>
         </PointData> 
      </Piece>
   </UnstructuredGrid> 
</VTKFile>
