<?xml version="1.0"?>
<VTKFile type="UnstructuredGrid" version="0.1" byte_order="LittleEndian">
   <UnstructuredGrid>
      <Piece NumberOfPoints="25" NumberOfCells="0" > 
         <Points> 
            <DataArray type="Float64" Name="Position" NumberOfComponents="3" format="ascii"> 
               0  0  20  
               0.75  0  20  
               1.5  0  20  
               2.25  0  20  
               3  0  20  
               0  0.75  20  
               0.75  0.75  20  
               1.5  0.75  20  
               2.25  0.75  20  
               3  0.75  20  
               0  1.5  20  
               0.75  1.5  20  
               1.5  1.5  20  
               2.25  1.5  20  
               3  1.5  20  
               0  2.25  20  
               0.75  2.25  20  
               1.5  2.25  20  
               2.25  2.25  20  
               3  2.25  20  
               0  3  20  
               0.75  3  20  
               1.5  3  20  
               2.25  3  20  
               3  3  20  
            </DataArray>
         </Points> 

         <Cells>
            <DataArray type="Int32" Name="connectivity" NumberOfComponents="1" format="ascii">
               
            </DataArray> 
            <DataArray type="Int32" Name="offsets" NumberOfComponents="1" format="ascii">
               
            </DataArray>
            <DataArray type="UInt8"  Name="types" NumberOfComponents="1" format="ascii">
               
            </DataArray>
         </Cells>
         <PointData Scalars="Rank " Vectors="Displacement Velocity Traction ">
            <DataArray type="UInt32" Name="Rank" NumberOfComponents="1" format="ascii">
               0 0 0 0 0 0 0 0 0 0 0 0 0 0 0 0 0 0 0 0 0 0 0 0 0 
            </DataArray>
            <DataArray type="Float64" Name="Displacement" NumberOfComponents="3" format="ascii">
               0.00441574 0.00439378 -0.0182884  0.000180797 0.0074691 -0.0175519  -0.00159915 0.00929856 -0.0165644  -0.00154956 0.00664151 -0.017587  -0.00477702 0.00694705 -0.018303  0.00748073 0.00016042 -0.0175546  0.00197602 0.00196542 -0.0151046  -0.000457531 0.00320922 -0.0130421  -0.00185651 0.00195352 -0.0155192  -0.00645744 0.00294096 -0.0173361  0.00930182 -0.00161635 -0.0165574  0.00321496 -0.000472531 -0.0130377  8.77766e-05 7.57913e-05 -0.00958938  -0.00295226 0.000404771 -0.0131131  -0.00902125 0.00166201 -0.0165283  0.00663253 -0.00155319 -0.0175718  0.00195373 -0.00186487 -0.0155118  0.000412986 -0.00295756 -0.0131093  -0.00181876 -0.00182115 -0.0152302  -0.00728356 -0.000287311 -0.0175206  0.00693494 -0.00476672 -0.0182764  0.00293662 -0.00645619 -0.0173236  0.00166807 -0.00902107 -0.0165198  -0.000273256 -0.00727946 -0.0175175  -0.00442823 -0.00444277 -0.0181769  
            </DataArray>
            <DataArray type="Float64" Name="Velocity" NumberOfComponents="3" format="ascii">
               0.0102143 0.0101944 -0.0387559  0.000183468 0.0175414 -0.0360119  -0.00261006 0.0227543 -0.0332265  -0.00257752 0.0160789 -0.0360272  -0.0112362 0.0144447 -0.0388238  0.0175878 0.000169026 -0.0360368  0.00391572 0.00388156 -0.0289378  -0.000639298 0.00661165 -0.022647  -0.00353149 0.00364838 -0.0293567  -0.0158193 0.00470837 -0.03575  0.0227976 -0.00263697 -0.0332475  0.0066464 -0.000660394 -0.0226442  0.000309779 0.000287279 -0.0126078  -0.00605366 0.000637272 -0.0227349  -0.0222543 0.00275943 -0.0331809  0.0161126 -0.00262546 -0.0360374  0.00367604 -0.00356425 -0.0293482  0.00065723 -0.00608507 -0.0227314  -0.00360547 -0.00363532 -0.0290944  -0.0172359 -0.000365518 -0.0359434  0.0144823 -0.0112843 -0.0388597  0.00474395 -0.0158622 -0.0357624  0.00277714 -0.0222943 -0.0331994  -0.000353732 -0.0172725 -0.0359651  -0.0101955 -0.0102124 -0.0385808  
            </DataArray>
            <DataArray type="Float64" Name="Traction" NumberOfComponents="3" format="ascii">
               -0.0280695 -0.0281726 -0.620098  -0.00538931 -0.0550271 -0.620098  0.0143105 -0.0693915 -0.620098  0.0122498 -0.0460757 -0.620098  0.0289728 -0.0423517 -0.620098  -0.054903 -0.00555433 -0.620098  -0.0216679 -0.0218318 -0.620098  0.0169353 -0.0346607 -0.620098  0.02104 -0.0213003 -0.620098  0.0437125 -0.0189454 -0.620098  -0.0692431 0.0141112 -0.620098  -0.0345144 0.0167853 -0.620098  0.0179163 0.0177929 -0.620098  0.0337358 0.00831934 -0.620098  0.0675761 -0.00199916 -0.620098  -0.0458386 0.0119601 -0.620098  -0.0211413 0.0208365 -0.620098  0.00843105 0.0335549 -0.620098  0.0214037 0.021253 -0.620098  0.0533321 0.00675084 -0.620098  -0.0420728 0.0285986 -0.620098  -0.0187713 0.0434458 -0.620098  -0.00189505 0.0673566 -0.620098  0.00680087 0.0531496 -0.620098  0.0284737 0.0284442 -0.620098  
            </DataArray>
         </PointData> 
      </Piece>
   </UnstructuredGrid> 
</VTKFile>
