<?xml version="1.0"?>
<VTKFile type="UnstructuredGrid" version="0.1" byte_order="LittleEndian">
   <UnstructuredGrid>
      <Piece NumberOfPoints="25" NumberOfCells="0" > 
         <Points> 
            <DataArray type="Float64" Name="Position" NumberOfComponents="3" format="ascii"> 
               0  0  15  
               0.75  0  15  
               1.5  0  15  
               2.25  0  15  
               3  0  15  
               0  0.75  15  
               0.75  0.75  15  
               1.5  0.75  15  
               2.25  0.75  15  
               3  0.75  15  
               0  1.5  15  
               0.75  1.5  15  
               1.5  1.5  15  
               2.25  1.5  15  
               3  1.5  15  
               0  2.25  15  
               0.75  2.25  15  
               1.5  2.25  15  
               2.25  2.25  15  
               3  2.25  15  
               0  3  15  
               0.75  3  15  
               1.5  3  15  
               2.25  3  15  
               3  3  15  
            </DataArray>
         </Points> 

         <Cells>
            <DataArray type="Int32" Name="connectivity" NumberOfComponents="1" format="ascii">
               
            </DataArray> 
            <DataArray type="Int32" Name="offsets" NumberOfComponents="1" format="ascii">
               
            </DataArray>
            <DataArray type="UInt8"  Name="types" NumberOfComponents="1" format="ascii">
               
            </DataArray>
         </Cells>
         <PointData Scalars="Rank " Vectors="Displacement Velocity Traction ">
            <DataArray type="UInt32" Name="Rank" NumberOfComponents="1" format="ascii">
               0 0 0 0 0 0 0 0 0 0 0 0 0 0 0 0 0 0 0 0 0 0 0 0 0 
            </DataArray>
            <DataArray type="Float64" Name="Displacement" NumberOfComponents="3" format="ascii">
               4.32107e-05 1.50926e-05 -1.38567e-06  4.32534e-05 2.70943e-07 -2.44337e-06  3.98972e-05 1.12026e-06 -3.11199e-06  3.56885e-05 5.30294e-06 -2.98342e-06  3.48482e-05 2.91093e-06 -1.40838e-06  1.20556e-05 1.50422e-05 -2.35892e-06  1.25862e-05 9.79445e-07 -3.94308e-06  1.32098e-05 1.08158e-06 -4.80867e-06  1.3593e-05 4.58355e-06 -4.3533e-06  1.432e-05 1.29615e-06 -2.73116e-06  1.35518e-05 1.42775e-05 -3.03228e-06  1.19822e-05 1.85355e-06 -4.81974e-06  7.34662e-06 -2.05297e-06 -5.76785e-06  3.10086e-06 3.10026e-06 -4.84566e-06  1.69493e-06 -1.64006e-06 -3.03663e-06  1.07579e-05 1.25838e-05 -2.90328e-06  1.03799e-05 1.84466e-06 -4.3606e-06  1.04697e-05 -5.40391e-06 -4.85769e-06  1.17108e-05 2.58356e-06 -3.99765e-06  1.14138e-05 -8.41929e-08 -2.45853e-06  -2.38117e-06 1.19188e-05 -1.34681e-06  -2.69349e-06 1.3643e-06 -2.75229e-06  -3.80401e-06 -7.71375e-06 -3.04043e-06  -9.06952e-07 9.77243e-07 -2.41041e-06  2.10472e-06 2.3622e-06 -1.42095e-06  
            </DataArray>
            <DataArray type="Float64" Name="Velocity" NumberOfComponents="3" format="ascii">
               4.3433e-05 1.69015e-05 5.1004e-06  4.31608e-05 3.34809e-06 4.56373e-06  4.0378e-05 5.95239e-06 4.1152e-06  3.69369e-05 5.67829e-06 4.24455e-06  3.6201e-05 -1.47938e-06 5.01603e-06  1.73493e-05 1.73624e-05 4.64244e-06  1.79088e-05 4.00748e-06 3.34465e-06  1.95448e-05 4.8106e-06 2.93217e-06  2.17564e-05 4.07774e-06 3.51269e-06  2.31926e-05 -2.59448e-06 3.99958e-06  1.57e-05 1.61777e-05 4.21153e-06  1.51261e-05 4.14287e-06 2.93843e-06  1.25073e-05 3.07811e-07 2.08224e-06  1.09451e-05 8.98088e-07 2.94944e-06  1.12121e-05 -5.47471e-06 3.97047e-06  1.06051e-05 1.37877e-05 4.32136e-06  1.08687e-05 3.21648e-06 3.50148e-06  1.1842e-05 -3.46254e-06 2.92428e-06  1.35211e-05 -6.22304e-07 3.40402e-06  1.37931e-05 -5.55009e-06 4.38129e-06  4.2185e-06 1.31984e-05 5.14384e-06  4.33753e-06 2.12158e-06 4.04452e-06  4.61265e-06 -5.97506e-06 4.05951e-06  7.34663e-06 -1.94574e-06 4.53402e-06  9.43625e-06 -3.87041e-06 4.81008e-06  
            </DataArray>
            <DataArray type="Float64" Name="Traction" NumberOfComponents="3" format="ascii">
               0 0 0  0 0 0  0 0 0  0 0 0  0 0 0  0 0 0  0 0 0  0 0 0  0 0 0  0 0 0  0 0 0  0 0 0  0 0 0  0 0 0  0 0 0  0 0 0  0 0 0  0 0 0  0 0 0  0 0 0  0 0 0  0 0 0  0 0 0  0 0 0  0 0 0  
            </DataArray>
         </PointData> 
      </Piece>
   </UnstructuredGrid> 
</VTKFile>
