<?xml version="1.0"?>
<VTKFile type="UnstructuredGrid" version="0.1" byte_order="LittleEndian">
   <UnstructuredGrid>
      <Piece NumberOfPoints="25" NumberOfCells="0" > 
         <Points> 
            <DataArray type="Float64" Name="Position" NumberOfComponents="3" format="ascii"> 
               0  0  15  
               0.75  0  15  
               1.5  0  15  
               2.25  0  15  
               3  0  15  
               0  0.75  15  
               0.75  0.75  15  
               1.5  0.75  15  
               2.25  0.75  15  
               3  0.75  15  
               0  1.5  15  
               0.75  1.5  15  
               1.5  1.5  15  
               2.25  1.5  15  
               3  1.5  15  
               0  2.25  15  
               0.75  2.25  15  
               1.5  2.25  15  
               2.25  2.25  15  
               3  2.25  15  
               0  3  15  
               0.75  3  15  
               1.5  3  15  
               2.25  3  15  
               3  3  15  
            </DataArray>
         </Points> 

         <Cells>
            <DataArray type="Int32" Name="connectivity" NumberOfComponents="1" format="ascii">
               
            </DataArray> 
            <DataArray type="Int32" Name="offsets" NumberOfComponents="1" format="ascii">
               
            </DataArray>
            <DataArray type="UInt8"  Name="types" NumberOfComponents="1" format="ascii">
               
            </DataArray>
         </Cells>
         <PointData Scalars="Rank " Vectors="Displacement Velocity Traction ">
            <DataArray type="UInt32" Name="Rank" NumberOfComponents="1" format="ascii">
               0 0 0 0 0 0 0 0 0 0 0 0 0 0 0 0 0 0 0 0 0 0 0 0 0 
            </DataArray>
            <DataArray type="Float64" Name="Displacement" NumberOfComponents="3" format="ascii">
               5.5277e-08 6.90248e-08 -1.10243e-07  5.03957e-08 -9.86169e-09 -9.94226e-08  3.823e-08 1.36037e-08 -8.9553e-08  2.56943e-08 2.37574e-09 -9.89725e-08  2.14617e-08 -1.02191e-08 -1.0985e-07  -8.1659e-09 6.10926e-08 -9.94237e-08  -7.70303e-09 -1.08622e-08 -7.3565e-08  -3.76266e-09 8.75733e-09 -4.97804e-08  3.64025e-09 1.94516e-09 -7.35756e-08  6.15704e-09 -1.70195e-08 -9.90052e-08  2.26713e-08 3.86399e-08 -8.95567e-08  1.52925e-08 -3.25414e-09 -4.97795e-08  -6.32295e-09 -3.6821e-09 -1.25615e-08  -2.72965e-08 7.98805e-09 -4.98731e-08  -3.76984e-08 -3.23278e-08 -8.97022e-08  3.53451e-09 2.36761e-08 -9.89694e-08  2.66732e-09 5.0424e-09 -7.35779e-08  8.80306e-09 -2.24906e-08 -4.98774e-08  1.32903e-08 8.86611e-09 -7.36334e-08  9.61637e-09 -3.93812e-08 -9.94456e-08  -1.96449e-08 1.73823e-08 -1.09844e-07  -2.64588e-08 7.22282e-09 -9.90095e-08  -5.32407e-08 -2.7618e-08 -8.97114e-08  -7.09412e-08 2.79825e-09 -9.94532e-08  -6.8007e-08 -4.28258e-08 -1.10181e-07  
            </DataArray>
            <DataArray type="Float64" Name="Velocity" NumberOfComponents="3" format="ascii">
               2.13287e-07 2.74298e-07 -3.02939e-07  1.99379e-07 -3.38865e-08 -2.73985e-07  1.63508e-07 3.64826e-08 -2.46488e-07  1.23448e-07 1.16844e-08 -2.73554e-07  1.08809e-07 -4.84102e-08 -3.02269e-07  -2.76309e-08 2.44318e-07 -2.73985e-07  -2.44377e-08 -3.8237e-08 -1.99782e-07  -1.35322e-08 2.03232e-08 -1.28056e-07  8.01648e-09 1.00016e-08 -1.99752e-07  1.54223e-08 -7.28017e-08 -2.736e-07  7.9493e-08 1.65213e-07 -2.46505e-07  5.2665e-08 -1.21248e-08 -1.28051e-07  -2.65828e-08 -1.73309e-08 -1.28731e-08  -9.98561e-08 2.98253e-08 -1.28156e-07  -1.37003e-07 -1.20004e-07 -2.46686e-07  1.96057e-08 1.11616e-07 -2.73551e-07  1.60511e-08 1.64578e-08 -1.99754e-07  3.33587e-08 -7.88677e-08 -1.28163e-07  4.80115e-08 3.18123e-08 -1.99857e-07  3.61485e-08 -1.3661e-07 -2.74015e-07  -9.72062e-08 8.79533e-08 -3.02259e-07  -1.23235e-07 2.49027e-08 -2.73604e-07  -2.17867e-07 -9.46491e-08 -2.46691e-07  -2.81321e-07 1.16354e-08 -2.74026e-07  -2.72585e-07 -1.47223e-07 -3.02837e-07  
            </DataArray>
            <DataArray type="Float64" Name="Traction" NumberOfComponents="3" format="ascii">
               4.22066e-06 4.48951e-06 -4.78077e-05  -1.09558e-06 4.68543e-06 -4.78077e-05  -1.90145e-07 6.73479e-07 -4.78077e-05  1.97711e-07 2.50243e-06 -4.78077e-05  -3.66063e-06 4.17597e-06 -4.78077e-05  3.03267e-06 -1.45563e-06 -4.78077e-05  -6.24246e-07 -9.18043e-07 -4.78077e-05  -8.40211e-08 -1.00291e-06 -4.78077e-05  9.89554e-07 -3.85504e-07 -4.78077e-05  -5.35358e-06 5.93238e-07 -4.78077e-05  3.22197e-06 -4.87835e-08 -4.78077e-05  -8.3288e-07 -8.08383e-08 -4.78077e-05  -1.71026e-07 -8.84259e-08 -4.78077e-05  2.04619e-06 1.86085e-07 -4.78077e-05  -6.55424e-06 3.72638e-07 -4.78077e-05  3.80181e-06 6.95487e-07 -4.78077e-05  -4.93721e-07 1.06533e-06 -4.78077e-05  2.09068e-07 1.54615e-06 -4.78077e-05  8.6484e-07 5.64004e-07 -4.78077e-05  -4.76544e-06 -3.94971e-07 -4.78077e-05  2.69164e-06 -2.23072e-06 -4.78077e-05  7.92724e-08 -4.63966e-06 -4.78077e-05  3.06944e-07 -3.62632e-06 -4.78077e-05  1.31997e-07 -1.77506e-06 -4.78077e-05  -2.31024e-06 -2.34155e-06 -4.78077e-05  
            </DataArray>
         </PointData> 
      </Piece>
   </UnstructuredGrid> 
</VTKFile>
