<?xml version="1.0"?>
<VTKFile type="UnstructuredGrid" version="0.1" byte_order="LittleEndian">
   <UnstructuredGrid>
      <Piece NumberOfPoints="25" NumberOfCells="0" > 
         <Points> 
            <DataArray type="Float64" Name="Position" NumberOfComponents="3" format="ascii"> 
               0  0  15  
               0.75  0  15  
               1.5  0  15  
               2.25  0  15  
               3  0  15  
               0  0.75  15  
               0.75  0.75  15  
               1.5  0.75  15  
               2.25  0.75  15  
               3  0.75  15  
               0  1.5  15  
               0.75  1.5  15  
               1.5  1.5  15  
               2.25  1.5  15  
               3  1.5  15  
               0  2.25  15  
               0.75  2.25  15  
               1.5  2.25  15  
               2.25  2.25  15  
               3  2.25  15  
               0  3  15  
               0.75  3  15  
               1.5  3  15  
               2.25  3  15  
               3  3  15  
            </DataArray>
         </Points> 

         <Cells>
            <DataArray type="Int32" Name="connectivity" NumberOfComponents="1" format="ascii">
               
            </DataArray> 
            <DataArray type="Int32" Name="offsets" NumberOfComponents="1" format="ascii">
               
            </DataArray>
            <DataArray type="UInt8"  Name="types" NumberOfComponents="1" format="ascii">
               
            </DataArray>
         </Cells>
         <PointData Scalars="Rank " Vectors="Displacement Velocity Traction ">
            <DataArray type="UInt32" Name="Rank" NumberOfComponents="1" format="ascii">
               0 0 0 0 0 0 0 0 0 0 0 0 0 0 0 0 0 0 0 0 0 0 0 0 0 
            </DataArray>
            <DataArray type="Float64" Name="Displacement" NumberOfComponents="3" format="ascii">
               4.34189e-08 5.37996e-08 -9.12692e-08  3.93361e-08 -7.93538e-09 -8.2442e-08  2.92224e-08 1.14509e-08 -7.42259e-08  1.89628e-08 1.7401e-09 -8.22156e-08  1.55531e-08 -7.54983e-09 -9.10033e-08  -6.59314e-09 4.75362e-08 -8.24422e-08  -6.30985e-09 -8.70789e-09 -6.05436e-08  -3.00146e-09 7.5318e-09 -3.9811e-08  3.1566e-09 1.39598e-09 -6.05301e-08  5.23297e-09 -1.29902e-08 -8.22411e-08  1.81801e-08 2.95295e-08 -7.42283e-08  1.23188e-08 -2.57178e-09 -3.981e-08  -4.84736e-09 -2.73845e-09 -6.89336e-09  -2.16952e-08 6.32366e-09 -3.98608e-08  -3.00126e-08 -2.55976e-08 -7.43137e-08  2.48696e-09 1.75738e-08 -8.22139e-08  1.80605e-09 4.11155e-09 -6.05312e-08  6.94209e-09 -1.80449e-08 -3.98637e-08  1.05933e-08 7.08489e-09 -6.05799e-08  7.57532e-09 -3.16552e-08 -8.24561e-08  -1.43548e-08 1.25933e-08 -9.10004e-08  -1.97219e-08 5.8064e-09 -8.22434e-08  -4.11845e-08 -2.22639e-08 -7.43183e-08  -5.53134e-08 2.14111e-09 -8.24605e-08  -5.28665e-08 -3.44919e-08 -9.12262e-08  
            </DataArray>
            <DataArray type="Float64" Name="Velocity" NumberOfComponents="3" format="ascii">
               1.77137e-07 2.26685e-07 -3.94488e-07  1.64259e-07 -2.93478e-08 -3.4931e-07  1.32386e-07 3.51384e-08 -3.14831e-07  9.73307e-08 9.47655e-09 -3.41663e-07  8.44936e-08 -3.88931e-08 -3.90664e-07  -2.39756e-08 2.01347e-07 -3.49343e-07  -2.16151e-08 -3.28097e-08 -2.74203e-07  -1.15276e-08 2.03012e-08 -2.29332e-07  8.13124e-09 7.93171e-09 -2.75126e-07  1.49452e-08 -5.9634e-08 -3.41868e-07  6.88037e-08 1.3407e-07 -3.14855e-07  4.52532e-08 -1.03336e-08 -2.29339e-07  -2.19263e-08 -1.36356e-08 -1.7862e-07  -8.44915e-08 2.49239e-08 -2.30775e-07  -1.16359e-07 -1.01582e-07 -3.16835e-07  1.49679e-08 8.85867e-08 -3.41613e-07  1.20551e-08 1.4309e-08 -2.75164e-07  2.78478e-08 -6.75298e-08 -2.30822e-07  4.0876e-08 2.69215e-08 -2.75283e-07  3.0825e-08 -1.1799e-07 -3.49594e-07  -7.59275e-08 6.86704e-08 -3.90569e-07  -9.7846e-08 2.14974e-08 -3.41934e-07  -1.78396e-07 -8.21442e-08 -3.16996e-07  -2.32517e-07 9.73627e-09 -3.497e-07  -2.2559e-07 -1.27868e-07 -3.93884e-07  
            </DataArray>
            <DataArray type="Float64" Name="Traction" NumberOfComponents="3" format="ascii">
               0 0 0  0 0 0  0 0 0  0 0 0  0 0 0  0 0 0  0 0 0  0 0 0  0 0 0  0 0 0  0 0 0  0 0 0  0 0 0  0 0 0  0 0 0  0 0 0  0 0 0  0 0 0  0 0 0  0 0 0  0 0 0  0 0 0  0 0 0  0 0 0  0 0 0  
            </DataArray>
         </PointData> 
      </Piece>
   </UnstructuredGrid> 
</VTKFile>
