<?xml version="1.0"?>
<VTKFile type="UnstructuredGrid" version="0.1" byte_order="LittleEndian">
   <UnstructuredGrid>
      <Piece NumberOfPoints="25" NumberOfCells="0" > 
         <Points> 
            <DataArray type="Float64" Name="Position" NumberOfComponents="3" format="ascii"> 
               0  0  20  
               0.75  0  20  
               1.5  0  20  
               2.25  0  20  
               3  0  20  
               0  0.75  20  
               0.75  0.75  20  
               1.5  0.75  20  
               2.25  0.75  20  
               3  0.75  20  
               0  1.5  20  
               0.75  1.5  20  
               1.5  1.5  20  
               2.25  1.5  20  
               3  1.5  20  
               0  2.25  20  
               0.75  2.25  20  
               1.5  2.25  20  
               2.25  2.25  20  
               3  2.25  20  
               0  3  20  
               0.75  3  20  
               1.5  3  20  
               2.25  3  20  
               3  3  20  
            </DataArray>
         </Points> 

         <Cells>
            <DataArray type="Int32" Name="connectivity" NumberOfComponents="1" format="ascii">
               
            </DataArray> 
            <DataArray type="Int32" Name="offsets" NumberOfComponents="1" format="ascii">
               
            </DataArray>
            <DataArray type="UInt8"  Name="types" NumberOfComponents="1" format="ascii">
               
            </DataArray>
         </Cells>
         <PointData Scalars="Rank " Vectors="Displacement Velocity Traction ">
            <DataArray type="UInt32" Name="Rank" NumberOfComponents="1" format="ascii">
               0 0 0 0 0 0 0 0 0 0 0 0 0 0 0 0 0 0 0 0 0 0 0 0 0 
            </DataArray>
            <DataArray type="Float64" Name="Displacement" NumberOfComponents="3" format="ascii">
               0.000514333 0.000521335 -0.00238346  2.40572e-05 0.000881184 -0.0023862  -0.000293337 0.00103966 -0.00230304  -0.000279059 0.000755315 -0.00240004  -0.000579143 0.000967116 -0.00240614  0.000864549 2.90902e-05 -0.00237663  0.000269714 0.000282536 -0.00219801  -0.000104369 0.000445485 -0.00205086  -0.000299885 0.000301223 -0.0022855  -0.000743157 0.000511454 -0.00235089  0.00102249 -0.000283945 -0.00229336  0.000431824 -9.6949e-05 -0.00205108  -1.36509e-05 -5.45757e-06 -0.00176647  -0.000430254 6.94168e-05 -0.00206132  -0.00101454 0.000278382 -0.00229887  0.000739131 -0.000259891 -0.00239259  0.000288754 -0.000287538 -0.00228714  6.09524e-05 -0.00041799 -0.00206176  -0.000277395 -0.000264531 -0.00221859  -0.000866714 -5.93351e-05 -0.00238496  0.000949722 -0.000556965 -0.0023866  0.000495662 -0.000725259 -0.00234328  0.000270271 -0.000998151 -0.0022899  -6.48614e-05 -0.000850446 -0.0023751  -0.000551213 -0.000543012 -0.0023755  
            </DataArray>
            <DataArray type="Float64" Name="Velocity" NumberOfComponents="3" format="ascii">
               0.000490399 0.000483104 -0.0022929  4.37117e-05 0.000805597 -0.00229878  -0.00023869 0.000951897 -0.0022328  -0.000240349 0.000698105 -0.00232102  -0.000522932 0.000870424 -0.00231434  0.000799927 3.55298e-05 -0.00229313  0.000254781 0.000257541 -0.00213789  -8.16876e-05 0.000402397 -0.00200958  -0.000265197 0.000276226 -0.00222316  -0.000673097 0.000456728 -0.00227743  0.000942429 -0.000241878 -0.00222321  0.000396588 -8.52523e-05 -0.00200804  -4.64144e-06 -5.94218e-06 -0.00175319  -0.000385857 6.11675e-05 -0.00202205  -0.000926339 0.000243055 -0.00223292  0.000684668 -0.000229988 -0.00231023  0.000269186 -0.000261863 -0.00222181  6.10094e-05 -0.000380882 -0.0020212  -0.00024845 -0.000242195 -0.00216101  -0.00079269 -6.30823e-05 -0.00230355  0.000854311 -0.000505268 -0.00229065  0.000444684 -0.000662086 -0.00226792  0.000241881 -0.000915974 -0.00222333  -5.78818e-05 -0.000780514 -0.0022955  -0.000503223 -0.000506971 -0.00228779  
            </DataArray>
            <DataArray type="Float64" Name="Traction" NumberOfComponents="3" format="ascii">
               -0.00315368 -0.0031887 -0.027202  -0.000817824 -0.00604392 -0.027202  0.00193088 -0.00701791 -0.027202  0.00147237 -0.00452352 -0.027202  0.00274517 -0.00534129 -0.027202  -0.00595191 -0.00079368 -0.027202  -0.00244933 -0.00247094 -0.027202  0.00209072 -0.00387058 -0.027202  0.00235753 -0.00253412 -0.027202  0.00400104 -0.00274918 -0.027202  -0.00693578 0.00199912 -0.027202  -0.00385769 0.00215776 -0.027202  0.00159541 0.0016634 -0.027202  0.00365003 0.000426196 -0.027202  0.00663686 -0.000474915 -0.027202  -0.0044539 0.00141169 -0.027202  -0.00253776 0.0023445 -0.027202  0.000350779 0.00364359 -0.027202  0.00231656 0.00231664 -0.027202  0.00568622 0.000943664 -0.027202  -0.00525083 0.00259568 -0.027202  -0.00273539 0.00390379 -0.027202  -0.000564319 0.00655772 -0.027202  0.000891578 0.00561679 -0.027202  0.00319248 0.00317609 -0.027202  
            </DataArray>
         </PointData> 
      </Piece>
   </UnstructuredGrid> 
</VTKFile>
