<?xml version="1.0"?>
<VTKFile type="UnstructuredGrid" version="0.1" byte_order="LittleEndian">
   <UnstructuredGrid>
      <Piece NumberOfPoints="25" NumberOfCells="0" > 
         <Points> 
            <DataArray type="Float64" Name="Position" NumberOfComponents="3" format="ascii"> 
               0  0  15  
               0.75  0  15  
               1.5  0  15  
               2.25  0  15  
               3  0  15  
               0  0.75  15  
               0.75  0.75  15  
               1.5  0.75  15  
               2.25  0.75  15  
               3  0.75  15  
               0  1.5  15  
               0.75  1.5  15  
               1.5  1.5  15  
               2.25  1.5  15  
               3  1.5  15  
               0  2.25  15  
               0.75  2.25  15  
               1.5  2.25  15  
               2.25  2.25  15  
               3  2.25  15  
               0  3  15  
               0.75  3  15  
               1.5  3  15  
               2.25  3  15  
               3  3  15  
            </DataArray>
         </Points> 

         <Cells>
            <DataArray type="Int32" Name="connectivity" NumberOfComponents="1" format="ascii">
               
            </DataArray> 
            <DataArray type="Int32" Name="offsets" NumberOfComponents="1" format="ascii">
               
            </DataArray>
            <DataArray type="UInt8"  Name="types" NumberOfComponents="1" format="ascii">
               
            </DataArray>
         </Cells>
         <PointData Scalars="Rank " Vectors="Displacement Velocity Traction ">
            <DataArray type="UInt32" Name="Rank" NumberOfComponents="1" format="ascii">
               0 0 0 0 0 0 0 0 0 0 0 0 0 0 0 0 0 0 0 0 0 0 0 0 0 
            </DataArray>
            <DataArray type="Float64" Name="Displacement" NumberOfComponents="3" format="ascii">
               0.000454188 0.00035196 -0.000111385  0.000437673 7.41657e-05 -0.000102775  0.000369994 1.84236e-05 -9.36058e-05  0.000290991 -1.18032e-05 -9.9953e-05  0.000263055 -0.000178841 -0.000108411  0.000119397 0.000337598 -0.000103928  0.000122632 7.62923e-05 -8.27175e-05  9.74465e-05 3.24733e-05 -6.8222e-05  7.68427e-05 -1.5704e-05 -8.45848e-05  8.57061e-05 -0.000204827 -9.78317e-05  3.84292e-05 0.000277218 -9.50742e-05  5.59326e-05 4.02894e-05 -6.8332e-05  2.18955e-05 -1.57401e-05 -4.58018e-05  -4.23454e-06 -6.8032e-05 -6.88262e-05  1.81618e-05 -0.00027423 -9.30963e-05  -1.09302e-05 0.000204401 -0.000101107  -5.33176e-06 1.90846e-06 -8.43766e-05  -3.23312e-05 -5.95148e-05 -6.86641e-05  -5.60545e-05 -0.000116909 -8.3142e-05  -5.21055e-05 -0.00032644 -0.000101629  -0.000151374 0.000178278 -0.00011091  -0.000170438 -2.79037e-06 -9.86146e-05  -0.000219704 -5.59531e-05 -9.37854e-05  -0.000250229 -0.00012807 -0.000102564  -0.000251845 -0.000335929 -0.000109119  
            </DataArray>
            <DataArray type="Float64" Name="Velocity" NumberOfComponents="3" format="ascii">
               0.000257319 0.000271434 -0.000168833  0.000241827 3.97962e-05 -0.000161973  0.000183326 -2.85542e-05 -0.000151451  0.000114492 -4.17216e-05 -0.000160052  8.81906e-05 -0.000184375 -0.000165421  1.35883e-05 0.000255221 -0.000162589  1.37915e-05 3.90978e-05 -0.000139666  -2.4288e-05 -7.23688e-06 -0.000123943  -6.09276e-05 -3.89481e-05 -0.000145115  -5.82405e-05 -0.00020905 -0.000155318  -5.7838e-05 0.000198469 -0.000152806  -3.69522e-05 -1.4445e-06 -0.000124255  -6.38371e-05 -3.64706e-05 -9.70245e-05  -8.7829e-05 -8.15671e-05 -0.000124623  -6.54584e-05 -0.0002734 -0.000149201  -7.11104e-05 0.000131752 -0.000161662  -6.80089e-05 -3.99012e-05 -0.000145234  -0.000107301 -6.33594e-05 -0.000124672  -0.000145924 -0.000125812 -0.000140734  -0.000144929 -0.000328006 -0.000159087  -0.00020555 0.000106151 -0.000168683  -0.000228764 -3.84469e-05 -0.000156342  -0.000288456 -4.4289e-05 -0.000150412  -0.000336758 -0.000129452 -0.000160446  -0.000348684 -0.000343678 -0.000164436  
            </DataArray>
            <DataArray type="Float64" Name="Traction" NumberOfComponents="3" format="ascii">
               0 0 0  0 0 0  0 0 0  0 0 0  0 0 0  0 0 0  0 0 0  0 0 0  0 0 0  0 0 0  0 0 0  0 0 0  0 0 0  0 0 0  0 0 0  0 0 0  0 0 0  0 0 0  0 0 0  0 0 0  0 0 0  0 0 0  0 0 0  0 0 0  0 0 0  
            </DataArray>
         </PointData> 
      </Piece>
   </UnstructuredGrid> 
</VTKFile>
