<?xml version="1.0"?>
<VTKFile type="UnstructuredGrid" version="0.1" byte_order="LittleEndian">
   <UnstructuredGrid>
      <Piece NumberOfPoints="25" NumberOfCells="0" > 
         <Points> 
            <DataArray type="Float64" Name="Position" NumberOfComponents="3" format="ascii"> 
               0  0  15  
               0.75  0  15  
               1.5  0  15  
               2.25  0  15  
               3  0  15  
               0  0.75  15  
               0.75  0.75  15  
               1.5  0.75  15  
               2.25  0.75  15  
               3  0.75  15  
               0  1.5  15  
               0.75  1.5  15  
               1.5  1.5  15  
               2.25  1.5  15  
               3  1.5  15  
               0  2.25  15  
               0.75  2.25  15  
               1.5  2.25  15  
               2.25  2.25  15  
               3  2.25  15  
               0  3  15  
               0.75  3  15  
               1.5  3  15  
               2.25  3  15  
               3  3  15  
            </DataArray>
         </Points> 

         <Cells>
            <DataArray type="Int32" Name="connectivity" NumberOfComponents="1" format="ascii">
               
            </DataArray> 
            <DataArray type="Int32" Name="offsets" NumberOfComponents="1" format="ascii">
               
            </DataArray>
            <DataArray type="UInt8"  Name="types" NumberOfComponents="1" format="ascii">
               
            </DataArray>
         </Cells>
         <PointData Scalars="Rank " Vectors="Displacement Velocity Traction ">
            <DataArray type="UInt32" Name="Rank" NumberOfComponents="1" format="ascii">
               0 0 0 0 0 0 0 0 0 0 0 0 0 0 0 0 0 0 0 0 0 0 0 0 0 
            </DataArray>
            <DataArray type="Float64" Name="Displacement" NumberOfComponents="3" format="ascii">
               3.82443e-05 1.3226e-05 -1.97917e-06  3.83114e-05 -7.49585e-08 -2.96602e-06  3.52668e-05 4.5944e-07 -3.57598e-06  3.14496e-05 4.63704e-06 -3.46434e-06  3.0691e-05 3.02254e-06 -1.99223e-06  1.00959e-05 1.31185e-05 -2.89131e-06  1.05634e-05 5.56782e-07 -4.31149e-06  1.09995e-05 5.50676e-07 -5.11984e-06  1.11339e-05 4.09992e-06 -4.73699e-06  1.16982e-05 1.53754e-06 -3.18692e-06  1.1752e-05 1.24729e-05 -3.5074e-06  1.02599e-05 1.40501e-06 -5.13135e-06  5.93503e-06 -2.07414e-06 -5.97104e-06  1.87901e-06 2.97415e-06 -5.15868e-06  4.51025e-07 -1.07033e-06 -3.48588e-06  9.52327e-06 1.10383e-05 -3.39299e-06  9.12102e-06 1.49371e-06 -4.74298e-06  9.10127e-06 -4.99534e-06 -5.16765e-06  1.01468e-05 2.62416e-06 -4.37233e-06  9.82087e-06 4.79093e-07 -2.96161e-06  -2.8649e-06 1.04363e-05 -1.94456e-06  -3.19251e-06 1.137e-06 -3.2127e-06  -4.33769e-06 -7.01303e-06 -3.49903e-06  -1.76694e-06 1.17137e-06 -2.93044e-06  9.96044e-07 2.72362e-06 -1.98304e-06  
            </DataArray>
            <DataArray type="Float64" Name="Velocity" NumberOfComponents="3" format="ascii">
               3.90356e-05 1.40404e-05 4.74183e-06  3.891e-05 2.36269e-06 4.09267e-06  3.65177e-05 4.99049e-06 3.55971e-06  3.34535e-05 5.38503e-06 3.71419e-06  3.28339e-05 -3.20406e-07 4.66635e-06  1.51577e-05 1.45285e-05 4.1759e-06  1.56449e-05 2.97905e-06 2.73724e-06  1.71133e-05 3.98132e-06 2.18804e-06  1.90193e-05 3.96363e-06 2.81736e-06  2.02815e-05 -1.36499e-06 3.54596e-06  1.41759e-05 1.37503e-05 3.64802e-06  1.34499e-05 3.28163e-06 2.18861e-06  1.0895e-05 2.87313e-08 1.23402e-06  9.28983e-06 1.21498e-06 2.20098e-06  9.37901e-06 -3.93945e-06 3.46209e-06  9.90403e-06 1.18504e-05 3.78334e-06  1.00364e-05 2.5946e-06 2.807e-06  1.08759e-05 -3.33504e-06 2.17547e-06  1.24442e-05 -2.76095e-08 2.78118e-06  1.2649e-05 -3.74429e-06 3.95194e-06  3.7848e-06 1.13956e-05 4.76866e-06  3.91924e-06 1.63916e-06 3.57755e-06  4.21741e-06 -5.67668e-06 3.52719e-06  6.91177e-06 -1.25684e-06 4.07968e-06  8.96062e-06 -2.06381e-06 4.51328e-06  
            </DataArray>
            <DataArray type="Float64" Name="Traction" NumberOfComponents="3" format="ascii">
               0 0 0  0 0 0  0 0 0  0 0 0  0 0 0  0 0 0  0 0 0  0 0 0  0 0 0  0 0 0  0 0 0  0 0 0  0 0 0  0 0 0  0 0 0  0 0 0  0 0 0  0 0 0  0 0 0  0 0 0  0 0 0  0 0 0  0 0 0  0 0 0  0 0 0  
            </DataArray>
         </PointData> 
      </Piece>
   </UnstructuredGrid> 
</VTKFile>
