<?xml version="1.0"?>
<VTKFile type="UnstructuredGrid" version="0.1" byte_order="LittleEndian">
   <UnstructuredGrid>
      <Piece NumberOfPoints="25" NumberOfCells="0" > 
         <Points> 
            <DataArray type="Float64" Name="Position" NumberOfComponents="3" format="ascii"> 
               0  0  20  
               0.75  0  20  
               1.5  0  20  
               2.25  0  20  
               3  0  20  
               0  0.75  20  
               0.75  0.75  20  
               1.5  0.75  20  
               2.25  0.75  20  
               3  0.75  20  
               0  1.5  20  
               0.75  1.5  20  
               1.5  1.5  20  
               2.25  1.5  20  
               3  1.5  20  
               0  2.25  20  
               0.75  2.25  20  
               1.5  2.25  20  
               2.25  2.25  20  
               3  2.25  20  
               0  3  20  
               0.75  3  20  
               1.5  3  20  
               2.25  3  20  
               3  3  20  
            </DataArray>
         </Points> 

         <Cells>
            <DataArray type="Int32" Name="connectivity" NumberOfComponents="1" format="ascii">
               
            </DataArray> 
            <DataArray type="Int32" Name="offsets" NumberOfComponents="1" format="ascii">
               
            </DataArray>
            <DataArray type="UInt8"  Name="types" NumberOfComponents="1" format="ascii">
               
            </DataArray>
         </Cells>
         <PointData Scalars="Rank " Vectors="Displacement Velocity Traction ">
            <DataArray type="UInt32" Name="Rank" NumberOfComponents="1" format="ascii">
               0 0 0 0 0 0 0 0 0 0 0 0 0 0 0 0 0 0 0 0 0 0 0 0 0 
            </DataArray>
            <DataArray type="Float64" Name="Displacement" NumberOfComponents="3" format="ascii">
               0 0 0  0 0 0  0 0 0  0 0 0  0 0 0  0 0 0  0 0 0  0 0 0  0 0 0  0 0 0  0 0 0  0 0 0  0 0 0  0 0 0  0 0 0  0 0 0  0 0 0  0 0 0  0 0 0  0 0 0  0 0 0  0 0 0  0 0 0  0 0 0  0 0 0  
            </DataArray>
            <DataArray type="Float64" Name="Velocity" NumberOfComponents="3" format="ascii">
               0 0 0  0 0 0  0 0 0  0 0 0  0 0 0  0 0 0  0 0 0  0 0 0  0 0 0  0 0 0  0 0 0  0 0 0  0 0 0  0 0 0  0 0 0  0 0 0  0 0 0  0 0 0  0 0 0  0 0 0  0 0 0  0 0 0  0 0 0  0 0 0  0 0 0  
            </DataArray>
            <DataArray type="Float64" Name="Traction" NumberOfComponents="3" format="ascii">
               -6.43298e-06 -5.73864e-06 -1.87064e-05  -2.0838e-06 -1.03066e-05 -1.87064e-05  3.67488e-06 -1.0636e-05 -1.87064e-05  2.66734e-06 -6.81934e-06 -1.87064e-05  4.3459e-06 -1.09027e-05 -1.87064e-05  -1.03016e-05 -1.20586e-06 -1.87064e-05  -4.1971e-06 -4.04684e-06 -1.87064e-05  3.72119e-06 -6.26912e-06 -1.87064e-05  3.79982e-06 -4.37778e-06 -1.87064e-05  5.16307e-06 -5.92528e-06 -1.87064e-05  -1.10421e-05 4.31657e-06 -1.87064e-05  -6.64948e-06 3.70275e-06 -1.87064e-05  2.1069e-06 2.15204e-06 -1.87064e-05  6.31798e-06 -5.65217e-07 -1.87064e-05  1.02512e-05 -2.17454e-06 -1.87064e-05  -6.90091e-06 3.26486e-06 -1.87064e-05  -4.58574e-06 3.83692e-06 -1.87064e-05  -7.47846e-07 6.2494e-06 -1.87064e-05  3.46886e-06 3.72506e-06 -1.87064e-05  9.19246e-06 9.65281e-07 -1.87064e-05  -1.02468e-05 5.06909e-06 -1.87064e-05  -5.51005e-06 5.26777e-06 -1.87064e-05  -1.75712e-06 1.02863e-05 -1.87064e-05  1.5534e-06 9.84649e-06 -1.87064e-05  5.48347e-06 5.18685e-06 -1.87064e-05  
            </DataArray>
         </PointData> 
      </Piece>
   </UnstructuredGrid> 
</VTKFile>
