<?xml version="1.0"?>
<VTKFile type="UnstructuredGrid" version="0.1" byte_order="LittleEndian">
   <UnstructuredGrid>
      <Piece NumberOfPoints="25" NumberOfCells="0" > 
         <Points> 
            <DataArray type="Float64" Name="Position" NumberOfComponents="3" format="ascii"> 
               0  0  15  
               0.75  0  15  
               1.5  0  15  
               2.25  0  15  
               3  0  15  
               0  0.75  15  
               0.75  0.75  15  
               1.5  0.75  15  
               2.25  0.75  15  
               3  0.75  15  
               0  1.5  15  
               0.75  1.5  15  
               1.5  1.5  15  
               2.25  1.5  15  
               3  1.5  15  
               0  2.25  15  
               0.75  2.25  15  
               1.5  2.25  15  
               2.25  2.25  15  
               3  2.25  15  
               0  3  15  
               0.75  3  15  
               1.5  3  15  
               2.25  3  15  
               3  3  15  
            </DataArray>
         </Points> 

         <Cells>
            <DataArray type="Int32" Name="connectivity" NumberOfComponents="1" format="ascii">
               
            </DataArray> 
            <DataArray type="Int32" Name="offsets" NumberOfComponents="1" format="ascii">
               
            </DataArray>
            <DataArray type="UInt8"  Name="types" NumberOfComponents="1" format="ascii">
               
            </DataArray>
         </Cells>
         <PointData Scalars="Rank " Vectors="Displacement Velocity Traction ">
            <DataArray type="UInt32" Name="Rank" NumberOfComponents="1" format="ascii">
               0 0 0 0 0 0 0 0 0 0 0 0 0 0 0 0 0 0 0 0 0 0 0 0 0 
            </DataArray>
            <DataArray type="Float64" Name="Displacement" NumberOfComponents="3" format="ascii">
               0.00136717 0.00179506 -0.040689  0.000636417 0.000967054 -0.0380635  0.000342119 0.000352683 -0.035215  0.000440825 -0.000259017 -0.0382665  3.61294e-05 -0.000266701 -0.0407956  0.000483413 0.00105812 -0.0380743  -0.000368346 0.000107909 -0.0313141  -0.00102474 -0.000295387 -0.0250045  -0.00139643 -0.000932065 -0.0318465  -0.00188783 -0.00119907 -0.0379172  -9.24528e-05 0.000763956 -0.0352149  -0.000739305 -0.000565395 -0.0249995  -0.00107353 -0.000635116 -0.0148377  -0.00156378 -0.00125428 -0.025108  -0.00217903 -0.00192619 -0.0351738  -0.000741339 0.000864312 -0.0382552  -0.00140901 -0.00094758 -0.031837  -0.00172729 -0.00112622 -0.0251037  -0.00232483 -0.00185326 -0.0315024  -0.00315023 -0.00260107 -0.0380098  -0.000808251 0.000456429 -0.040783  -0.00173271 -0.0014393 -0.0379103  -0.00245501 -0.00173785 -0.0351725  -0.00312799 -0.00268028 -0.0380139  -0.00389317 -0.00336967 -0.0405019  
            </DataArray>
            <DataArray type="Float64" Name="Velocity" NumberOfComponents="3" format="ascii">
               -0.00223755 -0.00211206 -0.144849  -0.00498255 0.00389187 -0.131764  -0.00366817 0.00432009 -0.119278  -0.000170031 0.00208349 -0.133705  -0.000881327 0.00799454 -0.146307  0.00375088 -0.00488475 -0.131796  -2.63213e-05 0.000107426 -0.102967  -0.000838738 0.000834377 -0.0730584  -0.000257312 -0.000921923 -0.103169  -0.00247742 0.00482311 -0.133351  0.004244 -0.00356509 -0.119305  0.000740784 -0.000708682 -0.0730572  0.00112377 0.00124158 -0.0257289  0.000449488 9.26371e-05 -0.0731879  -0.00319847 0.00460314 -0.11929  0.00197697 -3.78447e-05 -0.133723  -0.00102988 -0.000118028 -0.103162  -3.95264e-05 0.00057546 -0.0731868  -0.000574502 -0.000433116 -0.103283  -0.00433476 0.00425792 -0.131692  0.00783439 -0.000751062 -0.146366  0.00467645 -0.00232624 -0.133375  0.00443771 -0.00306324 -0.119319  0.00407661 -0.00420436 -0.131719  0.00132319 0.00149034 -0.144556  
            </DataArray>
            <DataArray type="Float64" Name="Traction" NumberOfComponents="3" format="ascii">
               -0.0164938 -0.0152215 1.79765  -0.00157034 -0.0711821 1.79765  0.00540204 -0.13457 1.79765  -0.030681 -0.0639739 1.79765  -0.0121068 -0.012413 1.79765  -0.0707242 0.00019911 1.79765  -0.0296967 -0.0282043 1.79765  0.0572213 -0.0814981 1.79765  0.0155506 -0.024953 1.79765  0.0539046 0.0114266 1.79765  -0.132838 0.00660015 1.79765  -0.083501 0.0582754 1.79765  0.10257 0.104276 1.79765  0.0686108 0.0538755 1.79765  0.126029 0.0248545 1.79765  -0.0626493 -0.0301702 1.79765  -0.0254842 0.016276 1.79765  0.0529883 0.0700604 1.79765  0.0196788 0.020976 1.79765  0.068471 -0.00795727 1.79765  -0.0110798 -0.0120457 1.79765  0.0117933 0.0550673 1.79765  0.0246119 0.128277 1.79765  -0.0088968 0.0701214 1.79765  0.0167802 0.0179869 1.79765  
            </DataArray>
         </PointData> 
      </Piece>
   </UnstructuredGrid> 
</VTKFile>
