<?xml version="1.0"?>
<VTKFile type="UnstructuredGrid" version="0.1" byte_order="LittleEndian">
   <UnstructuredGrid>
      <Piece NumberOfPoints="25" NumberOfCells="0" > 
         <Points> 
            <DataArray type="Float64" Name="Position" NumberOfComponents="3" format="ascii"> 
               0  0  15  
               0.75  0  15  
               1.5  0  15  
               2.25  0  15  
               3  0  15  
               0  0.75  15  
               0.75  0.75  15  
               1.5  0.75  15  
               2.25  0.75  15  
               3  0.75  15  
               0  1.5  15  
               0.75  1.5  15  
               1.5  1.5  15  
               2.25  1.5  15  
               3  1.5  15  
               0  2.25  15  
               0.75  2.25  15  
               1.5  2.25  15  
               2.25  2.25  15  
               3  2.25  15  
               0  3  15  
               0.75  3  15  
               1.5  3  15  
               2.25  3  15  
               3  3  15  
            </DataArray>
         </Points> 

         <Cells>
            <DataArray type="Int32" Name="connectivity" NumberOfComponents="1" format="ascii">
               
            </DataArray> 
            <DataArray type="Int32" Name="offsets" NumberOfComponents="1" format="ascii">
               
            </DataArray>
            <DataArray type="UInt8"  Name="types" NumberOfComponents="1" format="ascii">
               
            </DataArray>
         </Cells>
         <PointData Scalars="Rank " Vectors="Displacement Velocity Traction ">
            <DataArray type="UInt32" Name="Rank" NumberOfComponents="1" format="ascii">
               0 0 0 0 0 0 0 0 0 0 0 0 0 0 0 0 0 0 0 0 0 0 0 0 0 
            </DataArray>
            <DataArray type="Float64" Name="Displacement" NumberOfComponents="3" format="ascii">
               0.000144965 7.31905e-05 1.16754e-06  0.000142779 1.64871e-05 1.07878e-06  0.000130037 1.63106e-05 1.0789e-06  0.000115294 1.21855e-05 9.44894e-07  0.00011133 -1.60416e-05 1.12904e-06  5.39405e-05 7.25067e-05 1.07694e-06  5.56487e-05 1.82902e-05 7.2411e-07  5.76515e-05 1.50905e-05 1.25154e-06  6.12033e-05 8.55475e-06 1.14188e-06  6.49992e-05 -2.06903e-05 4.99268e-07  4.3837e-05 6.44339e-05 1.20977e-06  4.35915e-05 1.62843e-05 1.29717e-06  3.40967e-05 9.73211e-07 1.47167e-06  2.7276e-05 -1.86797e-06 1.21421e-06  2.862e-05 -3.23886e-05 6.28517e-07  2.59674e-05 5.31867e-05 1.13941e-06  2.71365e-05 1.16515e-05 1.1558e-06  2.80649e-05 -1.17028e-05 1.22672e-06  3.08797e-05 -8.76737e-06 8.283e-07  3.16932e-05 -3.57722e-05 5.68221e-07  -2.20292e-06 4.96729e-05 1.4402e-06  -3.42152e-06 8.72927e-06 5.80163e-07  -6.7475e-06 -1.78866e-05 8.77923e-07  -2.30396e-06 -1.32435e-05 8.91579e-07  2.98947e-06 -3.23378e-05 4.32771e-07  
            </DataArray>
            <DataArray type="Float64" Name="Velocity" NumberOfComponents="3" format="ascii">
               0.000115652 8.01612e-05 -8.20461e-06  0.000112124 2.27685e-05 -5.74326e-06  9.86871e-05 1.51006e-05 -3.91648e-06  8.35383e-05 2.31133e-06 -4.69759e-06  7.84206e-05 -3.38881e-05 -7.95071e-06  4.42732e-05 7.79477e-05 -6.05382e-06  4.53572e-05 2.35824e-05 -1.65723e-06  4.36815e-05 1.57707e-05 1.41079e-06  4.39416e-05 8.5665e-08 -8.60819e-07  4.69248e-05 -3.83756e-05 -5.16134e-06  2.56506e-05 6.59855e-05 -4.10273e-06  2.8917e-05 1.75168e-05 1.46596e-06  2.31214e-05 3.30552e-06 5.20275e-06  1.98268e-05 -1.15072e-05 1.34054e-06  2.46592e-05 -5.1248e-05 -4.40927e-06  7.84381e-06 5.16387e-05 -4.7084e-06  9.83827e-06 1.01769e-05 -7.77743e-07  8.19102e-06 -7.73509e-06 1.42761e-06  7.09473e-06 -2.1563e-05 -1.54023e-06  8.63832e-06 -6.1071e-05 -6.11507e-06  -1.33594e-05 4.69796e-05 -7.95981e-06  -1.58242e-05 7.87249e-06 -5.15e-06  -2.20038e-05 -1.00056e-05 -4.25259e-06  -2.47827e-05 -2.47783e-05 -6.02789e-06  -2.40958e-05 -6.23398e-05 -8.58998e-06  
            </DataArray>
            <DataArray type="Float64" Name="Traction" NumberOfComponents="3" format="ascii">
               0 0 0  0 0 0  0 0 0  0 0 0  0 0 0  0 0 0  0 0 0  0 0 0  0 0 0  0 0 0  0 0 0  0 0 0  0 0 0  0 0 0  0 0 0  0 0 0  0 0 0  0 0 0  0 0 0  0 0 0  0 0 0  0 0 0  0 0 0  0 0 0  0 0 0  
            </DataArray>
         </PointData> 
      </Piece>
   </UnstructuredGrid> 
</VTKFile>
