<?xml version="1.0"?>
<VTKFile type="UnstructuredGrid" version="0.1" byte_order="LittleEndian">
   <UnstructuredGrid>
      <Piece NumberOfPoints="25" NumberOfCells="0" > 
         <Points> 
            <DataArray type="Float64" Name="Position" NumberOfComponents="3" format="ascii"> 
               0  0  15  
               0.75  0  15  
               1.5  0  15  
               2.25  0  15  
               3  0  15  
               0  0.75  15  
               0.75  0.75  15  
               1.5  0.75  15  
               2.25  0.75  15  
               3  0.75  15  
               0  1.5  15  
               0.75  1.5  15  
               1.5  1.5  15  
               2.25  1.5  15  
               3  1.5  15  
               0  2.25  15  
               0.75  2.25  15  
               1.5  2.25  15  
               2.25  2.25  15  
               3  2.25  15  
               0  3  15  
               0.75  3  15  
               1.5  3  15  
               2.25  3  15  
               3  3  15  
            </DataArray>
         </Points> 

         <Cells>
            <DataArray type="Int32" Name="connectivity" NumberOfComponents="1" format="ascii">
               
            </DataArray> 
            <DataArray type="Int32" Name="offsets" NumberOfComponents="1" format="ascii">
               
            </DataArray>
            <DataArray type="UInt8"  Name="types" NumberOfComponents="1" format="ascii">
               
            </DataArray>
         </Cells>
         <PointData Scalars="Rank " Vectors="Displacement Velocity Traction ">
            <DataArray type="UInt32" Name="Rank" NumberOfComponents="1" format="ascii">
               0 0 0 0 0 0 0 0 0 0 0 0 0 0 0 0 0 0 0 0 0 0 0 0 0 
            </DataArray>
            <DataArray type="Float64" Name="Displacement" NumberOfComponents="3" format="ascii">
               0.00098052 0.000968317 -0.000735549  0.000923418 0.000128482 -0.000724024  0.000713451 -0.000114519 -0.000688095  0.000469938 -0.000145959 -0.000722033  0.000378765 -0.00064329 -0.000734768  6.48435e-05 0.000912147 -0.000722403  6.50003e-05 0.000126508 -0.000647591  -6.6876e-05 -4.37812e-05 -0.000590075  -0.000191017 -0.000142774 -0.000672135  -0.000177689 -0.000735738 -0.000704773  -0.000190261 0.00071185 -0.000688056  -0.000118709 -1.72022e-05 -0.000590863  -0.000217187 -0.000154267 -0.000487736  -0.000305783 -0.000298929 -0.000592731  -0.000229436 -0.000969307 -0.000683265  -0.000242504 0.00047654 -0.000723345  -0.000232061 -0.000156338 -0.000673228  -0.000366559 -0.000256489 -0.000593114  -0.000499344 -0.000455296 -0.000652434  -0.000499122 -0.0011582 -0.000718466  -0.000730386 0.000386738 -0.000736269  -0.000814523 -0.000154055 -0.000705123  -0.0010267 -0.000195971 -0.000683167  -0.0011925 -0.000470995 -0.000717814  -0.00123213 -0.0012079 -0.000727019  
            </DataArray>
            <DataArray type="Float64" Name="Velocity" NumberOfComponents="3" format="ascii">
               0.000428434 0.000533193 -0.000763851  0.000389251 2.86476e-05 -0.000771294  0.000261189 -0.000154064 -0.000746135  0.000116139 -0.000138888 -0.000776951  5.97609e-05 -0.000425703 -0.000775414  -8.64588e-05 0.000493352 -0.000765873  -9.18776e-05 2.25255e-05 -0.000716111  -0.000194537 -0.000102595 -0.000671884  -0.000293589 -0.000134364 -0.000745005  -0.000290432 -0.000489653 -0.000760551  -0.0002505 0.000366171 -0.000741105  -0.000200977 -8.01247e-05 -0.000672203  -0.000257713 -0.000155766 -0.000584318  -0.000315266 -0.000229261 -0.00067451  -0.000267425 -0.000641591 -0.000744371  -0.000239609 0.000221134 -0.000773625  -0.000237212 -0.00017531 -0.000746411  -0.000338349 -0.000206625 -0.000675049  -0.000442974 -0.000326998 -0.000722044  -0.00045029 -0.000767246 -0.000770585  -0.000556848 0.000163418 -0.000766388  -0.000620097 -0.00016863 -0.000757308  -0.000773779 -0.000152703 -0.000740276  -0.000902998 -0.000330728 -0.000765349  -0.000942352 -0.0008054 -0.000762261  
            </DataArray>
            <DataArray type="Float64" Name="Traction" NumberOfComponents="3" format="ascii">
               0 0 0  0 0 0  0 0 0  0 0 0  0 0 0  0 0 0  0 0 0  0 0 0  0 0 0  0 0 0  0 0 0  0 0 0  0 0 0  0 0 0  0 0 0  0 0 0  0 0 0  0 0 0  0 0 0  0 0 0  0 0 0  0 0 0  0 0 0  0 0 0  0 0 0  
            </DataArray>
         </PointData> 
      </Piece>
   </UnstructuredGrid> 
</VTKFile>
