<?xml version="1.0"?>
<VTKFile type="UnstructuredGrid" version="0.1" byte_order="LittleEndian">
   <UnstructuredGrid>
      <Piece NumberOfPoints="25" NumberOfCells="0" > 
         <Points> 
            <DataArray type="Float64" Name="Position" NumberOfComponents="3" format="ascii"> 
               0  0  15  
               0.75  0  15  
               1.5  0  15  
               2.25  0  15  
               3  0  15  
               0  0.75  15  
               0.75  0.75  15  
               1.5  0.75  15  
               2.25  0.75  15  
               3  0.75  15  
               0  1.5  15  
               0.75  1.5  15  
               1.5  1.5  15  
               2.25  1.5  15  
               3  1.5  15  
               0  2.25  15  
               0.75  2.25  15  
               1.5  2.25  15  
               2.25  2.25  15  
               3  2.25  15  
               0  3  15  
               0.75  3  15  
               1.5  3  15  
               2.25  3  15  
               3  3  15  
            </DataArray>
         </Points> 

         <Cells>
            <DataArray type="Int32" Name="connectivity" NumberOfComponents="1" format="ascii">
               
            </DataArray> 
            <DataArray type="Int32" Name="offsets" NumberOfComponents="1" format="ascii">
               
            </DataArray>
            <DataArray type="UInt8"  Name="types" NumberOfComponents="1" format="ascii">
               
            </DataArray>
         </Cells>
         <PointData Scalars="Rank " Vectors="Displacement Velocity Traction ">
            <DataArray type="UInt32" Name="Rank" NumberOfComponents="1" format="ascii">
               0 0 0 0 0 0 0 0 0 0 0 0 0 0 0 0 0 0 0 0 0 0 0 0 0 
            </DataArray>
            <DataArray type="Float64" Name="Displacement" NumberOfComponents="3" format="ascii">
               0.00191183 0.00225867 -0.00998327  0.00166865 0.00025589 -0.00976567  0.00114998 -0.000494177 -0.00932951  0.000634442 -0.000586846 -0.00980849  0.000378745 -0.00165609 -0.00999866  -0.000153577 0.00201356 -0.0097607  -0.000294636 0.000108799 -0.00872574  -0.000763969 -0.000420312 -0.00787294  -0.00117165 -0.000676367 -0.00901952  -0.001218 -0.00202174 -0.0096343  -0.000878063 0.00149674 -0.00931657  -0.000800765 -0.000377356 -0.00786966  -0.00109091 -0.000721042 -0.0063706  -0.00139029 -0.00110102 -0.0079195  -0.00129804 -0.002697 -0.00930687  -0.00100309 0.000980741 -0.00979092  -0.00108606 -0.000797513 -0.00901509  -0.00150031 -0.00102362 -0.00791699  -0.00195914 -0.00156519 -0.00880821  -0.00209614 -0.00326859 -0.00974994  -0.00211946 0.000722198 -0.00996325  -0.00247722 -0.000847591 -0.00961896  -0.00313963 -0.000931939 -0.00929327  -0.00370234 -0.00170442 -0.00974036  -0.00394613 -0.00351471 -0.00991465  
            </DataArray>
            <DataArray type="Float64" Name="Velocity" NumberOfComponents="3" format="ascii">
               -9.56594e-05 4.59466e-05 -0.0146795  -0.000296954 0.000244019 -0.0139241  -0.000289766 0.000196618 -0.0130342  -0.000130698 -5.34391e-05 -0.013924  -0.000211037 0.000221318 -0.014627  0.000122049 -0.000156508 -0.0139414  -0.000162333 -4.14519e-05 -0.0117819  -0.000323726 -7.76443e-05 -0.00996307  -0.000397097 -0.000281296 -0.0120672  -0.000565799 -3.12131e-05 -0.0137372  8.27915e-05 -0.000154763 -0.0130452  -0.000189994 -0.000203792 -0.00995965  -0.00030379 -0.000190168 -0.0069918  -0.000453571 -0.000336333 -0.0100184  -0.000697759 -0.000159522 -0.0129998  -0.000168902 -8.05685e-07 -0.0139253  -0.000397186 -0.000277279 -0.0120593  -0.000457072 -0.000338399 -0.010015  -0.000595686 -0.000469703 -0.0118754  -0.000861229 -0.000302526 -0.0138866  9.7414e-05 -8.24288e-05 -0.0146404  -0.00015739 -0.000443104 -0.0137409  -0.000294353 -0.000577092 -0.0130089  -0.000445709 -0.000730978 -0.0139004  -0.000676097 -0.00053085 -0.0145662  
            </DataArray>
            <DataArray type="Float64" Name="Traction" NumberOfComponents="3" format="ascii">
               0 0 0  0 0 0  0 0 0  0 0 0  0 0 0  0 0 0  0 0 0  0 0 0  0 0 0  0 0 0  0 0 0  0 0 0  0 0 0  0 0 0  0 0 0  0 0 0  0 0 0  0 0 0  0 0 0  0 0 0  0 0 0  0 0 0  0 0 0  0 0 0  0 0 0  
            </DataArray>
         </PointData> 
      </Piece>
   </UnstructuredGrid> 
</VTKFile>
