<?xml version="1.0"?>
<VTKFile type="UnstructuredGrid" version="0.1" byte_order="LittleEndian">
   <UnstructuredGrid>
      <Piece NumberOfPoints="25" NumberOfCells="0" > 
         <Points> 
            <DataArray type="Float64" Name="Position" NumberOfComponents="3" format="ascii"> 
               0  0  15  
               0.75  0  15  
               1.5  0  15  
               2.25  0  15  
               3  0  15  
               0  0.75  15  
               0.75  0.75  15  
               1.5  0.75  15  
               2.25  0.75  15  
               3  0.75  15  
               0  1.5  15  
               0.75  1.5  15  
               1.5  1.5  15  
               2.25  1.5  15  
               3  1.5  15  
               0  2.25  15  
               0.75  2.25  15  
               1.5  2.25  15  
               2.25  2.25  15  
               3  2.25  15  
               0  3  15  
               0.75  3  15  
               1.5  3  15  
               2.25  3  15  
               3  3  15  
            </DataArray>
         </Points> 

         <Cells>
            <DataArray type="Int32" Name="connectivity" NumberOfComponents="1" format="ascii">
               
            </DataArray> 
            <DataArray type="Int32" Name="offsets" NumberOfComponents="1" format="ascii">
               
            </DataArray>
            <DataArray type="UInt8"  Name="types" NumberOfComponents="1" format="ascii">
               
            </DataArray>
         </Cells>
         <PointData Scalars="Rank " Vectors="Displacement Velocity Traction ">
            <DataArray type="UInt32" Name="Rank" NumberOfComponents="1" format="ascii">
               0 0 0 0 0 0 0 0 0 0 0 0 0 0 0 0 0 0 0 0 0 0 0 0 0 
            </DataArray>
            <DataArray type="Float64" Name="Displacement" NumberOfComponents="3" format="ascii">
               3.68445e-07 4.56188e-07 -5.74863e-07  3.50239e-07 -4.63276e-08 -5.20858e-07  2.96196e-07 2.09691e-08 -4.69956e-07  2.36239e-07 1.5148e-08 -5.13087e-07  2.15837e-07 -7.46796e-08 -5.74272e-07  -3.81381e-08 4.08627e-07 -5.20911e-07  -2.89912e-08 -5.14619e-08 -3.9844e-07  -1.95038e-08 7.58118e-09 -2.99389e-07  1.20676e-09 1.67112e-08 -4.01136e-07  9.81866e-09 -1.0983e-07 -5.12194e-07  1.12536e-07 2.87996e-07 -4.69972e-07  7.9782e-08 -1.67842e-08 -2.99382e-07  -4.06259e-08 -3.64005e-08 -1.51017e-07  -1.54031e-07 4.79816e-08 -3.00684e-07  -2.09954e-07 -1.72657e-07 -4.71247e-07  4.01931e-08 2.033e-07 -5.12985e-07  3.57574e-08 2.29972e-08 -4.01184e-07  5.26911e-08 -1.17436e-07 -3.00698e-07  6.96608e-08 5.19078e-08 -3.99547e-07  5.21923e-08 -1.82688e-07 -5.20882e-07  -1.88832e-07 1.66582e-07 -5.74125e-07  -2.29245e-07 3.91373e-08 -5.1229e-07  -3.73413e-07 -1.32345e-07 -4.71425e-07  -4.64734e-07 2.34227e-08 -5.21034e-07  -4.46573e-07 -1.91221e-07 -5.74913e-07  
            </DataArray>
            <DataArray type="Float64" Name="Velocity" NumberOfComponents="3" format="ascii">
               9.84378e-07 1.15238e-06 -1.22154e-06  9.50171e-07 -8.82123e-08 -1.12132e-06  8.24215e-07 -4.89169e-08 -1.01579e-06  6.84926e-07 2.91608e-08 -1.09412e-06  6.39954e-07 -1.67732e-07 -1.22586e-06  -7.30055e-08 1.03743e-06 -1.12158e-06  -4.088e-08 -9.66615e-08 -8.87939e-07  -3.96819e-08 -5.0671e-08 -7.22495e-07  -2.92867e-08 4.3892e-08 -9.01347e-07  -1.97127e-08 -2.45335e-07 -1.08834e-06  2.40141e-07 7.63056e-07 -1.01576e-06  1.83626e-07 -3.24295e-08 -7.22467e-07  -9.3688e-08 -1.15615e-07 -4.81276e-07  -3.61234e-07 1.18056e-07 -7.2681e-07  -4.90993e-07 -3.64359e-07 -1.01874e-06  1.25856e-07 5.60282e-07 -1.09362e-06  1.16856e-07 4.72484e-08 -9.01535e-07  1.26815e-07 -2.64995e-07 -7.2675e-07  1.5001e-07 1.31621e-07 -8.92009e-07  1.11336e-07 -3.45312e-07 -1.12079e-06  -5.51318e-07 4.71964e-07 -1.22524e-06  -6.47874e-07 9.17186e-08 -1.08877e-06  -9.74653e-07 -2.77364e-07 -1.01943e-06  -1.16718e-06 7.35238e-08 -1.12144e-06  -1.11559e-06 -3.43806e-07 -1.22295e-06  
            </DataArray>
            <DataArray type="Float64" Name="Traction" NumberOfComponents="3" format="ascii">
               0 0 0  0 0 0  0 0 0  0 0 0  0 0 0  0 0 0  0 0 0  0 0 0  0 0 0  0 0 0  0 0 0  0 0 0  0 0 0  0 0 0  0 0 0  0 0 0  0 0 0  0 0 0  0 0 0  0 0 0  0 0 0  0 0 0  0 0 0  0 0 0  0 0 0  
            </DataArray>
         </PointData> 
      </Piece>
   </UnstructuredGrid> 
</VTKFile>
