<?xml version="1.0"?>
<VTKFile type="UnstructuredGrid" version="0.1" byte_order="LittleEndian">
   <UnstructuredGrid>
      <Piece NumberOfPoints="25" NumberOfCells="0" > 
         <Points> 
            <DataArray type="Float64" Name="Position" NumberOfComponents="3" format="ascii"> 
               0  0  15  
               0.75  0  15  
               1.5  0  15  
               2.25  0  15  
               3  0  15  
               0  0.75  15  
               0.75  0.75  15  
               1.5  0.75  15  
               2.25  0.75  15  
               3  0.75  15  
               0  1.5  15  
               0.75  1.5  15  
               1.5  1.5  15  
               2.25  1.5  15  
               3  1.5  15  
               0  2.25  15  
               0.75  2.25  15  
               1.5  2.25  15  
               2.25  2.25  15  
               3  2.25  15  
               0  3  15  
               0.75  3  15  
               1.5  3  15  
               2.25  3  15  
               3  3  15  
            </DataArray>
         </Points> 

         <Cells>
            <DataArray type="Int32" Name="connectivity" NumberOfComponents="1" format="ascii">
               
            </DataArray> 
            <DataArray type="Int32" Name="offsets" NumberOfComponents="1" format="ascii">
               
            </DataArray>
            <DataArray type="UInt8"  Name="types" NumberOfComponents="1" format="ascii">
               
            </DataArray>
         </Cells>
         <PointData Scalars="Rank " Vectors="Displacement Velocity Traction ">
            <DataArray type="UInt32" Name="Rank" NumberOfComponents="1" format="ascii">
               0 0 0 0 0 0 0 0 0 0 0 0 0 0 0 0 0 0 0 0 0 0 0 0 0 
            </DataArray>
            <DataArray type="Float64" Name="Displacement" NumberOfComponents="3" format="ascii">
               0.0009173 0.000890006 -0.000627906  0.000865885 0.000124077 -0.00061543  0.000674674 -9.23688e-05 -0.000583145  0.000452464 -0.000125867 -0.000612703  0.000369552 -0.000581051 -0.000625585  7.71591e-05 0.000839621 -0.000614565  7.80575e-05 0.000122943 -0.000546926  -3.8863e-05 -2.91982e-05 -0.000495737  -0.000148554 -0.000123398 -0.000567412  -0.000135703 -0.000664201 -0.000597787  -0.000154107 0.000657932 -0.000583788  -8.98179e-05 -5.82377e-06 -0.000496471  -0.000179969 -0.00013189 -0.000405845  -0.00026015 -0.000265691 -0.000498032  -0.000190831 -0.000875577 -0.000578616  -0.000207814 0.000443901 -0.000614442  -0.000197763 -0.000131087 -0.000568294  -0.000317483 -0.000226672 -0.000498333  -0.000435014 -0.000407776 -0.000550945  -0.000433787 -0.00104612 -0.000610036  -0.000649188 0.000362549 -0.000628273  -0.000724132 -0.000129799 -0.000598561  -0.000913874 -0.00017406 -0.000579061  -0.00106082 -0.000422959 -0.000610097  -0.00109477 -0.00109028 -0.000619667  
            </DataArray>
            <DataArray type="Float64" Name="Velocity" NumberOfComponents="3" format="ascii">
               0.000413298 0.000509107 -0.000667169  0.000376827 3.02009e-05 -0.00067223  0.000255309 -0.000140289 -0.000648851  0.000116864 -0.000128297 -0.000676318  6.33076e-05 -0.000402418 -0.000675969  -7.70205e-05 0.000471977 -0.000667621  -8.14633e-05 2.51519e-05 -0.000621815  -0.000177755 -9.10803e-05 -0.000581796  -0.000270915 -0.000123279 -0.000646868  -0.000267713 -0.00046216 -0.000661536  -0.000230095 0.000351576 -0.000644854  -0.000183008 -7.09945e-05 -0.000582205  -0.000237098 -0.000141652 -0.000503732  -0.000291513 -0.000212812 -0.000583989  -0.000245834 -0.000605496 -0.000646588  -0.000221682 0.000213455 -0.000673989  -0.000218867 -0.000160349 -0.000648252  -0.000314301 -0.00018982 -0.000584539  -0.000412611 -0.000305113 -0.000626837  -0.000418645 -0.000724055 -0.000670708  -0.000523229 0.000158728 -0.000669304  -0.000582262 -0.000153793 -0.000659163  -0.000727104 -0.000138584 -0.000643491  -0.000848608 -0.000308284 -0.00066651  -0.000884877 -0.000759651 -0.000664826  
            </DataArray>
            <DataArray type="Float64" Name="Traction" NumberOfComponents="3" format="ascii">
               0.0162314 0.0169934 -0.0442659  0.002384 0.0197564 -0.0442659  -0.00426343 0.0205631 -0.0442659  -0.0109342 0.0209732 -0.0442659  -0.0246853 0.0224899 -0.0442659  0.0204083 0.00334503 -0.0442659  0.00590224 0.00701102 -0.0442659  -0.00102062 0.00754971 -0.0442659  -0.0085725 0.00706067 -0.0442659  -0.0217448 0.00930806 -0.0442659  0.0209004 -0.00378264 -0.0442659  0.00582049 -0.000255513 -0.0442659  -0.00144901 -0.000595981 -0.0442659  -0.00966422 -0.00103946 -0.0442659  -0.0226986 0.00200097 -0.0442659  0.0208334 -0.0106654 -0.0442659  0.00565677 -0.00829468 -0.0442659  -0.00176071 -0.00954112 -0.0442659  -0.00972415 -0.00977455 -0.0442659  -0.0190595 -0.00756754 -0.0442659  0.0223483 -0.0253585 -0.0442659  0.00803443 -0.0213057 -0.0442659  0.00164157 -0.0217032 -0.0442659  -0.00723735 -0.0192419 -0.0442659  -0.0130032 -0.0133354 -0.0442659  
            </DataArray>
         </PointData> 
      </Piece>
   </UnstructuredGrid> 
</VTKFile>
