<?xml version="1.0"?>
<VTKFile type="UnstructuredGrid" version="0.1" byte_order="LittleEndian">
   <UnstructuredGrid>
      <Piece NumberOfPoints="25" NumberOfCells="0" > 
         <Points> 
            <DataArray type="Float64" Name="Position" NumberOfComponents="3" format="ascii"> 
               0  0  15  
               0.75  0  15  
               1.5  0  15  
               2.25  0  15  
               3  0  15  
               0  0.75  15  
               0.75  0.75  15  
               1.5  0.75  15  
               2.25  0.75  15  
               3  0.75  15  
               0  1.5  15  
               0.75  1.5  15  
               1.5  1.5  15  
               2.25  1.5  15  
               3  1.5  15  
               0  2.25  15  
               0.75  2.25  15  
               1.5  2.25  15  
               2.25  2.25  15  
               3  2.25  15  
               0  3  15  
               0.75  3  15  
               1.5  3  15  
               2.25  3  15  
               3  3  15  
            </DataArray>
         </Points> 

         <Cells>
            <DataArray type="Int32" Name="connectivity" NumberOfComponents="1" format="ascii">
               
            </DataArray> 
            <DataArray type="Int32" Name="offsets" NumberOfComponents="1" format="ascii">
               
            </DataArray>
            <DataArray type="UInt8"  Name="types" NumberOfComponents="1" format="ascii">
               
            </DataArray>
         </Cells>
         <PointData Scalars="Rank " Vectors="Displacement Velocity Traction ">
            <DataArray type="UInt32" Name="Rank" NumberOfComponents="1" format="ascii">
               0 0 0 0 0 0 0 0 0 0 0 0 0 0 0 0 0 0 0 0 0 0 0 0 0 
            </DataArray>
            <DataArray type="Float64" Name="Displacement" NumberOfComponents="3" format="ascii">
               9.3534e-06 5.22516e-06 -4.17582e-06  9.26645e-06 -2.72567e-07 -4.25178e-06  8.11887e-06 -1.26042e-06 -4.15807e-06  6.86224e-06 5.39245e-07 -4.268e-06  6.5708e-06 6.07394e-07 -4.16182e-06  8.46246e-07 4.7864e-06 -4.24807e-06  1.02167e-06 -1.6335e-07 -4.05157e-06  7.98279e-07 -8.78584e-07 -3.97231e-06  3.32891e-07 7.20852e-07 -4.26178e-06  2.54738e-07 1.07327e-07 -4.10379e-06  1.99761e-06 4.06072e-06 -4.14923e-06  1.6088e-06 7.62464e-08 -3.97375e-06  -2.32522e-08 -1.14427e-06 -3.70306e-06  -1.85396e-06 1.03099e-06 -4.00051e-06  -2.70073e-06 -5.73129e-07 -4.11522e-06  1.84189e-06 3.3829e-06 -4.25134e-06  1.6795e-06 2.95359e-07 -4.2628e-06  1.41625e-06 -1.76785e-06 -3.99563e-06  1.41482e-06 1.20686e-06 -4.09598e-06  1.14342e-06 4.78501e-08 -4.22618e-06  -3.51874e-06 3.01167e-06 -4.15465e-06  -3.88887e-06 4.52486e-07 -4.11833e-06  -5.05872e-06 -1.9927e-06 -4.12908e-06  -4.97568e-06 8.12375e-07 -4.23988e-06  -4.21576e-06 5.92232e-07 -4.14086e-06  
            </DataArray>
            <DataArray type="Float64" Name="Velocity" NumberOfComponents="3" format="ascii">
               1.18464e-05 3.27211e-06 -1.24273e-06  1.19207e-05 -3.60571e-07 -1.72627e-06  1.07675e-05 -9.53604e-07 -2.05126e-06  9.36549e-06 1.24802e-06 -1.9449e-06  9.09501e-06 1.8504e-06 -1.21337e-06  2.32678e-06 3.17779e-06 -1.7085e-06  2.4389e-06 -1.30956e-07 -2.37668e-06  2.28117e-06 -6.03145e-07 -2.86621e-06  1.82463e-06 1.29622e-06 -2.62469e-06  1.81212e-06 1.31859e-06 -1.74331e-06  3.06682e-06 3.25518e-06 -2.03341e-06  2.44868e-06 1.84053e-07 -2.87135e-06  8.312e-07 -1.09282e-06 -3.35582e-06  -9.05934e-07 1.24633e-06 -2.88811e-06  -1.64167e-06 5.45885e-07 -1.97058e-06  2.89124e-06 3.08548e-06 -1.91922e-06  2.64085e-06 2.92132e-07 -2.62503e-06  2.3916e-06 -1.81814e-06 -2.88444e-06  2.55699e-06 1.3171e-06 -2.41959e-06  2.34858e-06 1.36055e-06 -1.69384e-06  -2.27735e-06 2.92127e-06 -1.20749e-06  -2.40716e-06 2.6976e-07 -1.76534e-06  -2.81399e-06 -2.40187e-06 -1.99071e-06  -1.77417e-06 8.20867e-07 -1.70727e-06  -7.27018e-07 2.24695e-06 -1.17964e-06  
            </DataArray>
            <DataArray type="Float64" Name="Traction" NumberOfComponents="3" format="ascii">
               0 0 0  0 0 0  0 0 0  0 0 0  0 0 0  0 0 0  0 0 0  0 0 0  0 0 0  0 0 0  0 0 0  0 0 0  0 0 0  0 0 0  0 0 0  0 0 0  0 0 0  0 0 0  0 0 0  0 0 0  0 0 0  0 0 0  0 0 0  0 0 0  0 0 0  
            </DataArray>
         </PointData> 
      </Piece>
   </UnstructuredGrid> 
</VTKFile>
