<?xml version="1.0"?>
<VTKFile type="UnstructuredGrid" version="0.1" byte_order="LittleEndian">
   <UnstructuredGrid>
      <Piece NumberOfPoints="25" NumberOfCells="0" > 
         <Points> 
            <DataArray type="Float64" Name="Position" NumberOfComponents="3" format="ascii"> 
               0  0  20  
               0.75  0  20  
               1.5  0  20  
               2.25  0  20  
               3  0  20  
               0  0.75  20  
               0.75  0.75  20  
               1.5  0.75  20  
               2.25  0.75  20  
               3  0.75  20  
               0  1.5  20  
               0.75  1.5  20  
               1.5  1.5  20  
               2.25  1.5  20  
               3  1.5  20  
               0  2.25  20  
               0.75  2.25  20  
               1.5  2.25  20  
               2.25  2.25  20  
               3  2.25  20  
               0  3  20  
               0.75  3  20  
               1.5  3  20  
               2.25  3  20  
               3  3  20  
            </DataArray>
         </Points> 

         <Cells>
            <DataArray type="Int32" Name="connectivity" NumberOfComponents="1" format="ascii">
               
            </DataArray> 
            <DataArray type="Int32" Name="offsets" NumberOfComponents="1" format="ascii">
               
            </DataArray>
            <DataArray type="UInt8"  Name="types" NumberOfComponents="1" format="ascii">
               
            </DataArray>
         </Cells>
         <PointData Scalars="Rank " Vectors="Displacement Velocity Traction ">
            <DataArray type="UInt32" Name="Rank" NumberOfComponents="1" format="ascii">
               0 0 0 0 0 0 0 0 0 0 0 0 0 0 0 0 0 0 0 0 0 0 0 0 0 
            </DataArray>
            <DataArray type="Float64" Name="Displacement" NumberOfComponents="3" format="ascii">
               8.06955e-05 8.27888e-05 -0.000333943  -1.50096e-06 0.000144131 -0.000321104  -4.86388e-05 0.000170906 -0.000300265  -4.00843e-05 0.000120038 -0.000317189  -9.30838e-05 0.00015025 -0.000329466  0.00014391 7.04387e-07 -0.000322005  4.4094e-05 4.4242e-05 -0.000276729  -1.31047e-05 7.03382e-05 -0.000244462  -4.00084e-05 4.26734e-05 -0.000286399  -0.00011648 7.4951e-05 -0.000309158  0.000172416 -4.68374e-05 -0.000302221  7.14393e-05 -1.15561e-05 -0.000244916  2.3779e-06 2.99341e-06 -0.000190451  -6.18634e-05 1.18104e-05 -0.000245851  -0.000161686 4.78133e-05 -0.000297398  0.000122812 -4.14191e-05 -0.000319417  4.43944e-05 -3.96127e-05 -0.000286604  1.20498e-05 -6.18559e-05 -0.000245881  -3.80642e-05 -3.88028e-05 -0.000278713  -0.000135816 -1.1281e-06 -0.000317249  0.000152713 -9.61645e-05 -0.000333877  7.71578e-05 -0.000117495 -0.000310547  4.82214e-05 -0.000162551 -0.000298726  -2.18017e-06 -0.000137426 -0.000318658  -8.21846e-05 -8.13729e-05 -0.000327851  
            </DataArray>
            <DataArray type="Float64" Name="Velocity" NumberOfComponents="3" format="ascii">
               8.79908e-05 9.30777e-05 -0.000397188  -4.43295e-07 0.000157552 -0.000394582  -5.78369e-05 0.000184916 -0.000376674  -5.12593e-05 0.000132304 -0.000394523  -0.00010245 0.000174085 -0.000397697  0.00015304 4.41181e-06 -0.000392959  4.6828e-05 5.10341e-05 -0.000357373  -2.11709e-05 8.07099e-05 -0.000329221  -5.43967e-05 5.33622e-05 -0.000371814  -0.000132376 9.25233e-05 -0.000384627  0.000181071 -5.28967e-05 -0.000376004  7.69374e-05 -1.68478e-05 -0.000329728  -3.94226e-06 2.20207e-08 -0.000277508  -7.67706e-05 1.28737e-05 -0.000330521  -0.000178739 5.09078e-05 -0.000373546  0.00013015 -4.71084e-05 -0.000395024  5.04892e-05 -5.06709e-05 -0.000372743  9.26491e-06 -7.37607e-05 -0.000330926  -4.95428e-05 -4.67152e-05 -0.000360252  -0.000152025 -8.82471e-06 -0.000391404  0.000172704 -9.93142e-05 -0.00039794  9.06099e-05 -0.000128911 -0.000384708  4.82018e-05 -0.000176065 -0.000373427  -1.2653e-05 -0.000150198 -0.000390689  -9.80453e-05 -9.38691e-05 -0.000392915  
            </DataArray>
            <DataArray type="Float64" Name="Traction" NumberOfComponents="3" format="ascii">
               -0.000655757 -0.000625622 -0.00456463  -0.000228756 -0.00105683 -0.00456463  0.000245635 -0.00124683 -0.00456463  0.00021238 -0.000828802 -0.00456463  0.000502663 -0.00090258 -0.00456463  -0.00108308 -0.000198711 -0.00456463  -0.000458591 -0.000434366 -0.00456463  0.000326622 -0.000683015 -0.00456463  0.000391464 -0.000445339 -0.00456463  0.000722887 -0.000427291 -0.00456463  -0.00128257 0.000267189 -0.00456463  -0.000710935 0.000336661 -0.00456463  0.000258186 0.000270214 -0.00456463  0.000610024 7.17411e-05 -0.00456463  0.00114349 -4.72528e-05 -0.00456463  -0.000860972 0.000258984 -0.00456463  -0.000464127 0.000418859 -0.00456463  6.45425e-05 0.000634225 -0.00456463  0.00038563 0.00040841 -0.00456463  0.000963378 0.000195921 -0.00456463  -0.000937922 0.000568007 -0.00456463  -0.000447727 0.000768164 -0.00456463  -5.00519e-05 0.00118259 -0.00456463  0.000188891 0.00100161 -0.00456463  0.000582966 0.000600565 -0.00456463  
            </DataArray>
         </PointData> 
      </Piece>
   </UnstructuredGrid> 
</VTKFile>
