<?xml version="1.0"?>
<VTKFile type="UnstructuredGrid" version="0.1" byte_order="LittleEndian">
   <UnstructuredGrid>
      <Piece NumberOfPoints="25" NumberOfCells="0" > 
         <Points> 
            <DataArray type="Float64" Name="Position" NumberOfComponents="3" format="ascii"> 
               0  0  15  
               0.75  0  15  
               1.5  0  15  
               2.25  0  15  
               3  0  15  
               0  0.75  15  
               0.75  0.75  15  
               1.5  0.75  15  
               2.25  0.75  15  
               3  0.75  15  
               0  1.5  15  
               0.75  1.5  15  
               1.5  1.5  15  
               2.25  1.5  15  
               3  1.5  15  
               0  2.25  15  
               0.75  2.25  15  
               1.5  2.25  15  
               2.25  2.25  15  
               3  2.25  15  
               0  3  15  
               0.75  3  15  
               1.5  3  15  
               2.25  3  15  
               3  3  15  
            </DataArray>
         </Points> 

         <Cells>
            <DataArray type="Int32" Name="connectivity" NumberOfComponents="1" format="ascii">
               
            </DataArray> 
            <DataArray type="Int32" Name="offsets" NumberOfComponents="1" format="ascii">
               
            </DataArray>
            <DataArray type="UInt8"  Name="types" NumberOfComponents="1" format="ascii">
               
            </DataArray>
         </Cells>
         <PointData Scalars="Rank " Vectors="Displacement Velocity Traction ">
            <DataArray type="UInt32" Name="Rank" NumberOfComponents="1" format="ascii">
               0 0 0 0 0 0 0 0 0 0 0 0 0 0 0 0 0 0 0 0 0 0 0 0 0 
            </DataArray>
            <DataArray type="Float64" Name="Displacement" NumberOfComponents="3" format="ascii">
               1.58555e-06 1.64866e-06 -1.68267e-06  1.53469e-06 -1.05692e-07 -1.56991e-06  1.31865e-06 -1.40627e-07 -1.4345e-06  1.08797e-06 3.93609e-08 -1.53354e-06  1.01873e-06 -1.79963e-07 -1.68935e-06  -7.25695e-08 1.48459e-06 -1.57038e-06  -2.41344e-08 -1.11819e-07 -1.27407e-06  -3.77462e-08 -1.16593e-07 -1.06554e-06  -5.54278e-08 7.19132e-08 -1.30139e-06  -5.21581e-08 -2.94966e-07 -1.51805e-06  3.53359e-07 1.11041e-06 -1.43419e-06  2.78993e-07 -3.21059e-08 -1.06547e-06  -1.22298e-07 -1.99514e-07 -7.4902e-07  -5.32011e-07 1.84566e-07 -1.0721e-06  -7.29771e-07 -4.68025e-07 -1.43634e-06  2.17906e-07 8.25556e-07 -1.53226e-06  2.01968e-07 6.98099e-08 -1.30171e-06  1.95678e-07 -3.98215e-07 -1.07172e-06  2.13491e-07 2.15545e-07 -1.28134e-06  1.51157e-07 -4.19149e-07 -1.56778e-06  -8.51091e-07 6.97687e-07 -1.68812e-06  -9.87255e-07 1.3349e-07 -1.51911e-06  -1.4425e-06 -4.13294e-07 -1.4377e-06  -1.67871e-06 1.31581e-07 -1.56925e-06  -1.58402e-06 -3.95536e-07 -1.68428e-06  
            </DataArray>
            <DataArray type="Float64" Name="Velocity" NumberOfComponents="3" format="ascii">
               3.11383e-06 2.60506e-06 -2.23507e-06  3.0458e-06 -8.38055e-08 -2.17637e-06  2.62167e-06 -5.34842e-07 -2.03522e-06  2.18446e-06 6.11872e-08 -2.12272e-06  2.07042e-06 -9.22889e-08 -2.24728e-06  1.77088e-08 2.35471e-06 -2.17746e-06  1.09634e-07 -7.10194e-08 -1.90417e-06  1.82298e-08 -3.88498e-07 -1.75368e-06  -1.48272e-07 1.53612e-07 -1.97667e-06  -1.84953e-07 -2.75516e-07 -2.07336e-06  5.55168e-07 1.85919e-06 -2.03378e-06  4.74642e-07 1.43063e-10 -1.75351e-06  -1.5333e-07 -4.41244e-07 -1.49736e-06  -8.61068e-07 3.40991e-07 -1.76637e-06  -1.19804e-06 -5.1175e-07 -2.03068e-06  4.97206e-07 1.44742e-06 -2.11867e-06  4.61865e-07 1.06875e-07 -1.97734e-06  3.58209e-07 -6.56649e-07 -1.76479e-06  3.25499e-07 4.23607e-07 -1.92122e-06  2.13601e-07 -3.14904e-07 -2.16863e-06  -1.61985e-06 1.25003e-06 -2.24413e-06  -1.82304e-06 2.10771e-07 -2.0767e-06  -2.46249e-06 -6.51449e-07 -2.03426e-06  -2.67239e-06 2.99555e-07 -2.1729e-06  -2.45163e-06 -1.85962e-07 -2.23538e-06  
            </DataArray>
            <DataArray type="Float64" Name="Traction" NumberOfComponents="3" format="ascii">
               6.17905e-05 6.02683e-05 -0.000165659  -2.15162e-05 4.90498e-05 -0.000165659  -1.08531e-05 -2.78177e-06 -0.000165659  4.14049e-06 2.81717e-05 -0.000165659  -6.1855e-05 7.13787e-05 -0.000165659  4.67031e-05 -2.06549e-05 -0.000165659  -1.68144e-06 -6.81348e-06 -0.000165659  -4.57041e-07 -7.36979e-06 -0.000165659  5.54241e-06 -2.0184e-06 -0.000165659  -7.54013e-05 9.22691e-06 -0.000165659  4.898e-05 -5.27824e-06 -0.000165659  -1.08673e-06 -3.13702e-06 -0.000165659  -9.55892e-07 -8.88964e-07 -0.000165659  1.66627e-05 2.32231e-06 -0.000165659  -8.40626e-05 6.72674e-06 -0.000165659  5.64866e-05 7.83088e-06 -0.000165659  1.75161e-07 8.43188e-06 -0.000165659  4.55681e-06 1.17861e-05 -0.000165659  7.19783e-06 7.04283e-06 -0.000165659  -5.17992e-05 -4.11949e-06 -0.000165659  5.53037e-05 -4.37708e-05 -0.000165659  3.91821e-06 -5.48869e-05 -0.000165659  7.50576e-06 -4.13346e-05 -0.000165659  7.56804e-06 -8.03696e-06 -0.000165659  1.14529e-06 -8.50626e-06 -0.000165659  
            </DataArray>
         </PointData> 
      </Piece>
   </UnstructuredGrid> 
</VTKFile>
