<?xml version="1.0"?>
<VTKFile type="UnstructuredGrid" version="0.1" byte_order="LittleEndian">
   <UnstructuredGrid>
      <Piece NumberOfPoints="25" NumberOfCells="0" > 
         <Points> 
            <DataArray type="Float64" Name="Position" NumberOfComponents="3" format="ascii"> 
               0  0  15  
               0.75  0  15  
               1.5  0  15  
               2.25  0  15  
               3  0  15  
               0  0.75  15  
               0.75  0.75  15  
               1.5  0.75  15  
               2.25  0.75  15  
               3  0.75  15  
               0  1.5  15  
               0.75  1.5  15  
               1.5  1.5  15  
               2.25  1.5  15  
               3  1.5  15  
               0  2.25  15  
               0.75  2.25  15  
               1.5  2.25  15  
               2.25  2.25  15  
               3  2.25  15  
               0  3  15  
               0.75  3  15  
               1.5  3  15  
               2.25  3  15  
               3  3  15  
            </DataArray>
         </Points> 

         <Cells>
            <DataArray type="Int32" Name="connectivity" NumberOfComponents="1" format="ascii">
               
            </DataArray> 
            <DataArray type="Int32" Name="offsets" NumberOfComponents="1" format="ascii">
               
            </DataArray>
            <DataArray type="UInt8"  Name="types" NumberOfComponents="1" format="ascii">
               
            </DataArray>
         </Cells>
         <PointData Scalars="Rank " Vectors="Displacement Velocity Traction ">
            <DataArray type="UInt32" Name="Rank" NumberOfComponents="1" format="ascii">
               0 0 0 0 0 0 0 0 0 0 0 0 0 0 0 0 0 0 0 0 0 0 0 0 0 
            </DataArray>
            <DataArray type="Float64" Name="Displacement" NumberOfComponents="3" format="ascii">
               0.00021637 0.000126998 -8.74055e-06  0.000211717 3.08958e-05 -7.05273e-06  0.000189545 2.3681e-05 -5.65372e-06  0.000163996 1.17933e-05 -6.47672e-06  0.000156215 -4.13451e-05 -8.48001e-06  7.85243e-05 0.000124445 -7.29716e-06  8.08161e-05 3.30576e-05 -4.18061e-06  8.04043e-05 2.37261e-05 -1.39521e-06  8.2593e-05 7.19269e-06 -3.49275e-06  8.80293e-05 -4.93013e-05 -6.98383e-06  5.54571e-05 0.000107707 -5.74131e-06  5.778e-05 2.62389e-05 -1.33395e-06  4.42234e-05 1.9108e-06 1.92155e-06  3.48377e-05 -1.1022e-05 -1.50284e-06  3.97266e-05 -7.03242e-05 -6.28101e-06  2.72831e-05 8.61997e-05 -6.37831e-06  2.96322e-05 1.62732e-05 -3.41159e-06  2.81661e-05 -1.76964e-05 -1.43128e-06  2.89407e-05 -2.51396e-05 -4.05077e-06  3.07232e-05 -8.12629e-05 -7.63541e-06  -1.69333e-05 7.92049e-05 -8.37028e-06  -2.03113e-05 1.21925e-05 -6.9603e-06  -2.9127e-05 -2.4353e-05 -6.03384e-06  -2.80736e-05 -3.15435e-05 -7.37726e-06  -2.29039e-05 -7.93348e-05 -9.43886e-06  
            </DataArray>
            <DataArray type="Float64" Name="Velocity" NumberOfComponents="3" format="ascii">
               0.000153808 0.000124122 -3.13947e-05  0.000147919 3.11911e-05 -2.71677e-05  0.000125284 1.15544e-05 -2.36346e-05  9.90443e-05 -4.41846e-06 -2.55652e-05  8.95133e-05 -6.32771e-05 -3.04416e-05  4.69255e-05 0.000119116 -2.7772e-05  4.80249e-05 3.17044e-05 -1.89506e-05  4.00554e-05 1.59736e-05 -1.33998e-05  3.40554e-05 -5.73915e-06 -1.88666e-05  3.71986e-05 -7.15015e-05 -2.52317e-05  1.62701e-05 9.79226e-05 -2.42977e-05  2.29015e-05 1.91809e-05 -1.34055e-05  1.30871e-05 -6.63114e-07 -5.26534e-06  6.36435e-06 -2.38282e-05 -1.36018e-05  1.50626e-05 -9.43944e-05 -2.37352e-05  -4.15695e-06 7.29725e-05 -2.59604e-05  -1.73405e-06 6.04507e-06 -1.87012e-05  -9.75315e-06 -1.57926e-05 -1.34741e-05  -1.6979e-05 -4.13116e-05 -1.89948e-05  -1.49252e-05 -0.000113557 -2.69832e-05  -4.51708e-05 6.42328e-05 -3.12818e-05  -5.11325e-05 4.08991e-06 -2.54853e-05  -6.64065e-05 -1.49056e-05 -2.39426e-05  -7.70257e-05 -4.5294e-05 -2.73581e-05  -7.83386e-05 -0.000118122 -3.07581e-05  
            </DataArray>
            <DataArray type="Float64" Name="Traction" NumberOfComponents="3" format="ascii">
               0 0 0  0 0 0  0 0 0  0 0 0  0 0 0  0 0 0  0 0 0  0 0 0  0 0 0  0 0 0  0 0 0  0 0 0  0 0 0  0 0 0  0 0 0  0 0 0  0 0 0  0 0 0  0 0 0  0 0 0  0 0 0  0 0 0  0 0 0  0 0 0  0 0 0  
            </DataArray>
         </PointData> 
      </Piece>
   </UnstructuredGrid> 
</VTKFile>
