<?xml version="1.0"?>
<VTKFile type="UnstructuredGrid" version="0.1" byte_order="LittleEndian">
   <UnstructuredGrid>
      <Piece NumberOfPoints="25" NumberOfCells="0" > 
         <Points> 
            <DataArray type="Float64" Name="Position" NumberOfComponents="3" format="ascii"> 
               0  0  15  
               0.75  0  15  
               1.5  0  15  
               2.25  0  15  
               3  0  15  
               0  0.75  15  
               0.75  0.75  15  
               1.5  0.75  15  
               2.25  0.75  15  
               3  0.75  15  
               0  1.5  15  
               0.75  1.5  15  
               1.5  1.5  15  
               2.25  1.5  15  
               3  1.5  15  
               0  2.25  15  
               0.75  2.25  15  
               1.5  2.25  15  
               2.25  2.25  15  
               3  2.25  15  
               0  3  15  
               0.75  3  15  
               1.5  3  15  
               2.25  3  15  
               3  3  15  
            </DataArray>
         </Points> 

         <Cells>
            <DataArray type="Int32" Name="connectivity" NumberOfComponents="1" format="ascii">
               
            </DataArray> 
            <DataArray type="Int32" Name="offsets" NumberOfComponents="1" format="ascii">
               
            </DataArray>
            <DataArray type="UInt8"  Name="types" NumberOfComponents="1" format="ascii">
               
            </DataArray>
         </Cells>
         <PointData Scalars="Rank " Vectors="Displacement Velocity Traction ">
            <DataArray type="UInt32" Name="Rank" NumberOfComponents="1" format="ascii">
               0 0 0 0 0 0 0 0 0 0 0 0 0 0 0 0 0 0 0 0 0 0 0 0 0 
            </DataArray>
            <DataArray type="Float64" Name="Displacement" NumberOfComponents="3" format="ascii">
               2.08447e-07 2.63644e-07 -3.6172e-07  1.96189e-07 -3.02559e-08 -3.26341e-07  1.62635e-07 2.47136e-08 -2.94069e-07  1.25622e-07 9.67837e-09 -3.2283e-07  1.1282e-07 -4.46171e-08 -3.60737e-07  -2.48327e-08 2.35443e-07 -3.2636e-07  -2.06948e-08 -3.37235e-08 -2.46057e-07  -1.23434e-08 1.3114e-08 -1.77867e-07  4.73935e-09 9.38737e-09 -2.46901e-07  1.11502e-08 -6.65038e-08 -3.22664e-07  7.10523e-08 1.61704e-07 -2.94084e-07  4.88232e-08 -1.07898e-08 -1.77864e-07  -2.43643e-08 -1.84029e-08 -7.44552e-08  -9.2943e-08 2.83277e-08 -1.78482e-07  -1.2706e-07 -1.08331e-07 -2.94814e-07  2.03441e-08 1.11075e-07 -3.22795e-07  1.74846e-08 1.47995e-08 -2.46921e-07  3.13699e-08 -7.23977e-08 -1.78499e-07  4.35436e-08 3.03788e-08 -2.4655e-07  3.25752e-08 -1.19936e-07 -3.2641e-07  -9.97187e-08 8.91856e-08 -3.60679e-07  -1.23821e-07 2.36482e-08 -3.22701e-07  -2.1208e-07 -8.43519e-08 -2.9489e-07  -2.69502e-07 1.20648e-08 -3.2647e-07  -2.59483e-07 -1.27648e-07 -3.61605e-07  
            </DataArray>
            <DataArray type="Float64" Name="Velocity" NumberOfComponents="3" format="ascii">
               6.18581e-07 7.67667e-07 -8.98164e-07  5.93425e-07 -7.07966e-08 -8.14522e-07  5.13391e-07 8.16267e-09 -7.35189e-07  4.22369e-07 2.49874e-08 -7.99119e-07  3.9131e-07 -1.29087e-07 -8.97973e-07  -5.83635e-08 6.89554e-07 -8.1463e-07  -4.03842e-08 -7.87293e-08 -6.3041e-07  -3.10017e-08 -7.01573e-09 -4.90599e-07  -6.95692e-09 2.93274e-08 -6.3595e-07  4.71582e-09 -1.83893e-07 -7.97285e-07  1.73808e-07 4.97182e-07 -7.35219e-07  1.25426e-07 -2.66054e-08 -4.9059e-07  -6.78175e-08 -6.54745e-08 -2.86725e-07  -2.48094e-07 7.84934e-08 -4.93106e-07  -3.36793e-07 -2.74215e-07 -7.37582e-07  7.36269e-08 3.60262e-07 -7.98922e-07  6.68298e-08 3.45016e-08 -6.36045e-07  8.61566e-08 -1.84478e-07 -4.9313e-07  1.09851e-07 8.42096e-08 -6.32551e-07  8.33541e-08 -2.76523e-07 -8.14547e-07  -3.40207e-07 3.00543e-07 -8.97683e-07  -4.06202e-07 6.26467e-08 -7.9747e-07  -6.36179e-07 -2.01765e-07 -7.37932e-07  -7.79933e-07 4.09111e-08 -8.14839e-07  -7.49571e-07 -2.85238e-07 -8.98439e-07  
            </DataArray>
            <DataArray type="Float64" Name="Traction" NumberOfComponents="3" format="ascii">
               1.26494e-05 1.29904e-05 -8.90249e-05  -3.69022e-06 1.2966e-05 -8.90249e-05  -1.21999e-06 6.38824e-07 -8.90249e-05  6.48659e-07 6.44048e-06 -8.90249e-05  -1.15965e-05 1.32554e-05 -8.90249e-05  8.63797e-06 -4.48676e-06 -8.90249e-05  -1.47577e-06 -2.34377e-06 -8.90249e-05  -1.36387e-07 -2.69851e-06 -8.90249e-05  2.31942e-06 -1.00104e-06 -8.90249e-05  -1.5447e-05 1.89171e-06 -8.90249e-05  9.70968e-06 -4.79068e-07 -8.90249e-05  -1.99055e-06 -4.16527e-07 -8.90249e-05  -3.86747e-07 -1.72101e-07 -8.90249e-05  5.31114e-06 5.58179e-07 -8.90249e-05  -1.81367e-05 1.33158e-06 -8.90249e-05  1.10312e-05 1.88481e-06 -8.90249e-05  -1.09754e-06 2.72364e-06 -8.90249e-05  8.4438e-07 3.97191e-06 -8.90249e-05  2.2011e-06 1.66596e-06 -8.90249e-05  -1.31976e-05 -9.92639e-07 -8.90249e-05  8.28379e-06 -6.52207e-06 -8.90249e-05  4.50389e-07 -1.2602e-05 -8.90249e-05  1.09182e-06 -9.31909e-06 -8.90249e-05  8.83249e-07 -3.53094e-06 -8.90249e-05  -5.02803e-06 -5.66461e-06 -8.90249e-05  
            </DataArray>
         </PointData> 
      </Piece>
   </UnstructuredGrid> 
</VTKFile>
