<?xml version="1.0"?>
<VTKFile type="UnstructuredGrid" version="0.1" byte_order="LittleEndian">
   <UnstructuredGrid>
      <Piece NumberOfPoints="25" NumberOfCells="0" > 
         <Points> 
            <DataArray type="Float64" Name="Position" NumberOfComponents="3" format="ascii"> 
               0  0  20  
               0.75  0  20  
               1.5  0  20  
               2.25  0  20  
               3  0  20  
               0  0.75  20  
               0.75  0.75  20  
               1.5  0.75  20  
               2.25  0.75  20  
               3  0.75  20  
               0  1.5  20  
               0.75  1.5  20  
               1.5  1.5  20  
               2.25  1.5  20  
               3  1.5  20  
               0  2.25  20  
               0.75  2.25  20  
               1.5  2.25  20  
               2.25  2.25  20  
               3  2.25  20  
               0  3  20  
               0.75  3  20  
               1.5  3  20  
               2.25  3  20  
               3  3  20  
            </DataArray>
         </Points> 

         <Cells>
            <DataArray type="Int32" Name="connectivity" NumberOfComponents="1" format="ascii">
               
            </DataArray> 
            <DataArray type="Int32" Name="offsets" NumberOfComponents="1" format="ascii">
               
            </DataArray>
            <DataArray type="UInt8"  Name="types" NumberOfComponents="1" format="ascii">
               
            </DataArray>
         </Cells>
         <PointData Scalars="Rank " Vectors="Displacement Velocity Traction ">
            <DataArray type="UInt32" Name="Rank" NumberOfComponents="1" format="ascii">
               0 0 0 0 0 0 0 0 0 0 0 0 0 0 0 0 0 0 0 0 0 0 0 0 0 
            </DataArray>
            <DataArray type="Float64" Name="Displacement" NumberOfComponents="3" format="ascii">
               0.000812482 0.00081424 -0.00375348  5.0242e-05 0.00136932 -0.00375059  -0.000429896 0.00161973 -0.00362393  -0.000415332 0.0011789 -0.00377576  -0.000891913 0.00148209 -0.0037837  0.00135223 4.99394e-05 -0.00373955  0.000422861 0.000435174 -0.00345585  -0.000148644 0.000684365 -0.00322372  -0.000452027 0.000462872 -0.00359191  -0.00114882 0.000775256 -0.00370066  0.00160004 -0.000423712 -0.00361045  0.000669673 -0.000144306 -0.003223  -1.31737e-05 -6.9643e-06 -0.00277542  -0.000655275 0.000105362 -0.00324183  -0.00157556 0.000420577 -0.00361853  0.00115769 -0.00039345 -0.00376331  0.000448464 -0.000439713 -0.00359238  9.81187e-05 -0.000642142 -0.00324163  -0.000421012 -0.000406675 -0.0034902  -0.00134311 -9.39924e-05 -0.00375051  0.00145833 -0.000863254 -0.00375384  0.000755327 -0.00112744 -0.00368875  0.000413137 -0.00155595 -0.00360558  -9.57556e-05 -0.00132266 -0.00373785  -0.000851684 -0.000846931 -0.00373947  
            </DataArray>
            <DataArray type="Float64" Name="Velocity" NumberOfComponents="3" format="ascii">
               0.000848267 0.000833019 -0.00382509  7.07449e-05 0.00138909 -0.00378348  -0.000366571 0.00166289 -0.00364875  -0.000362419 0.00120889 -0.00380952  -0.000881309 0.00142873 -0.00383444  0.00139351 5.60873e-05 -0.00378326  0.000427978 0.000422609 -0.00345215  -0.000113451 0.000663976 -0.00318614  -0.000410605 0.000442251 -0.00357998  -0.00115406 0.000710845 -0.00373831  0.0016622 -0.000377388 -0.00364248  0.000665847 -0.000123252 -0.0031836  8.15241e-06 7.40915e-07 -0.00269015  -0.000616904 9.81166e-05 -0.00320738  -0.00160206 0.000387339 -0.00364228  0.00120138 -0.000361875 -0.00379913  0.000441379 -0.000414505 -0.00357617  0.000103669 -0.000618613 -0.00320543  -0.000390287 -0.000390658 -0.00348965  -0.00134796 -8.86742e-05 -0.00378259  0.00141824 -0.000871999 -0.00381467  0.000705769 -0.00115083 -0.00372964  0.000391549 -0.00159928 -0.0036352  -7.7797e-05 -0.00134289 -0.00377903  -0.000844738 -0.000855817 -0.00380174  
            </DataArray>
            <DataArray type="Float64" Name="Traction" NumberOfComponents="3" format="ascii">
               -0.00477265 -0.0048354 -0.04739  -0.00109874 -0.00935724 -0.04739  0.00307843 -0.0109322 -0.04739  0.00234523 -0.00703015 -0.04739  0.004351 -0.00816669 -0.04739  -0.00921326 -0.00110576 -0.04739  -0.00372432 -0.00378976 -0.04739  0.00327928 -0.00594988 -0.04739  0.00367968 -0.00385687 -0.04739  0.00629754 -0.00417861 -0.04739  -0.0107878 0.00311765 -0.04739  -0.00589281 0.00332877 -0.04739  0.00258395 0.00263694 -0.04739  0.00571541 0.000732792 -0.04739  0.0104359 -0.000756096 -0.04739  -0.00688584 0.00220225 -0.04739  -0.00381969 0.00361666 -0.04739  0.000668478 0.00566276 -0.04739  0.0036406 0.00360165 -0.04739  0.00890065 0.00138332 -0.04739  -0.00798346 0.0040777 -0.04739  -0.00411318 0.00611526 -0.04739  -0.000833998 0.0102824 -0.04739  0.00133506 0.00876484 -0.04739  0.00491336 0.00488216 -0.04739  
            </DataArray>
         </PointData> 
      </Piece>
   </UnstructuredGrid> 
</VTKFile>
