<?xml version="1.0"?>
<VTKFile type="UnstructuredGrid" version="0.1" byte_order="LittleEndian">
   <UnstructuredGrid>
      <Piece NumberOfPoints="25" NumberOfCells="0" > 
         <Points> 
            <DataArray type="Float64" Name="Position" NumberOfComponents="3" format="ascii"> 
               0  0  20  
               0.75  0  20  
               1.5  0  20  
               2.25  0  20  
               3  0  20  
               0  0.75  20  
               0.75  0.75  20  
               1.5  0.75  20  
               2.25  0.75  20  
               3  0.75  20  
               0  1.5  20  
               0.75  1.5  20  
               1.5  1.5  20  
               2.25  1.5  20  
               3  1.5  20  
               0  2.25  20  
               0.75  2.25  20  
               1.5  2.25  20  
               2.25  2.25  20  
               3  2.25  20  
               0  3  20  
               0.75  3  20  
               1.5  3  20  
               2.25  3  20  
               3  3  20  
            </DataArray>
         </Points> 

         <Cells>
            <DataArray type="Int32" Name="connectivity" NumberOfComponents="1" format="ascii">
               
            </DataArray> 
            <DataArray type="Int32" Name="offsets" NumberOfComponents="1" format="ascii">
               
            </DataArray>
            <DataArray type="UInt8"  Name="types" NumberOfComponents="1" format="ascii">
               
            </DataArray>
         </Cells>
         <PointData Scalars="Rank " Vectors="Displacement Velocity Traction ">
            <DataArray type="UInt32" Name="Rank" NumberOfComponents="1" format="ascii">
               0 0 0 0 0 0 0 0 0 0 0 0 0 0 0 0 0 0 0 0 0 0 0 0 0 
            </DataArray>
            <DataArray type="Float64" Name="Displacement" NumberOfComponents="3" format="ascii">
               0 0 0  0 0 0  0 0 0  0 0 0  0 0 0  0 0 0  0 0 0  0 0 0  0 0 0  0 0 0  0 0 0  0 0 0  0 0 0  0 0 0  0 0 0  0 0 0  0 0 0  0 0 0  0 0 0  0 0 0  0 0 0  0 0 0  0 0 0  0 0 0  0 0 0  
            </DataArray>
            <DataArray type="Float64" Name="Velocity" NumberOfComponents="3" format="ascii">
               0 0 0  0 0 0  0 0 0  0 0 0  0 0 0  0 0 0  0 0 0  0 0 0  0 0 0  0 0 0  0 0 0  0 0 0  0 0 0  0 0 0  0 0 0  0 0 0  0 0 0  0 0 0  0 0 0  0 0 0  0 0 0  0 0 0  0 0 0  0 0 0  0 0 0  
            </DataArray>
            <DataArray type="Float64" Name="Traction" NumberOfComponents="3" format="ascii">
               -7.75427e-07 -7.90166e-07 -1.32411e-05  -2.21125e-07 -1.34513e-06 -1.32411e-05  1.8343e-07 -1.84067e-06 -1.32411e-05  2.31939e-07 -1.24892e-06 -1.32411e-05  7.81102e-07 -9.17108e-07 -1.32411e-05  -1.34875e-06 -2.33055e-07 -1.32411e-05  -5.38194e-07 -5.3396e-07 -1.32411e-05  3.5885e-07 -8.77059e-07 -1.32411e-05  5.13316e-07 -5.10277e-07 -1.32411e-05  1.23724e-06 -3.27865e-07 -1.32411e-05  -1.85583e-06 1.83866e-07 -1.32411e-05  -8.88913e-07 3.57676e-07 -1.32411e-05  4.65727e-07 4.63532e-07 -1.32411e-05  8.75866e-07 2.64724e-07 -1.32411e-05  1.85731e-06 6.16984e-08 -1.32411e-05  -1.25195e-06 2.36143e-07 -1.32411e-05  -5.12971e-07 5.10036e-07 -1.32411e-05  2.63194e-07 8.68883e-07 -1.32411e-05  5.21876e-07 5.25383e-07 -1.32411e-05  1.33969e-06 2.09717e-07 -1.32411e-05  -9.01231e-07 7.88556e-07 -1.32411e-05  -3.11322e-07 1.23299e-06 -1.32411e-05  9.17272e-08 1.84391e-06 -1.32411e-05  2.56697e-07 1.34905e-06 -1.32411e-05  7.90822e-07 7.53504e-07 -1.32411e-05  
            </DataArray>
         </PointData> 
      </Piece>
   </UnstructuredGrid> 
</VTKFile>
