<?xml version="1.0"?>
<VTKFile type="UnstructuredGrid" version="0.1" byte_order="LittleEndian">
   <UnstructuredGrid>
      <Piece NumberOfPoints="25" NumberOfCells="0" > 
         <Points> 
            <DataArray type="Float64" Name="Position" NumberOfComponents="3" format="ascii"> 
               0  0  20  
               0.75  0  20  
               1.5  0  20  
               2.25  0  20  
               3  0  20  
               0  0.75  20  
               0.75  0.75  20  
               1.5  0.75  20  
               2.25  0.75  20  
               3  0.75  20  
               0  1.5  20  
               0.75  1.5  20  
               1.5  1.5  20  
               2.25  1.5  20  
               3  1.5  20  
               0  2.25  20  
               0.75  2.25  20  
               1.5  2.25  20  
               2.25  2.25  20  
               3  2.25  20  
               0  3  20  
               0.75  3  20  
               1.5  3  20  
               2.25  3  20  
               3  3  20  
            </DataArray>
         </Points> 

         <Cells>
            <DataArray type="Int32" Name="connectivity" NumberOfComponents="1" format="ascii">
               
            </DataArray> 
            <DataArray type="Int32" Name="offsets" NumberOfComponents="1" format="ascii">
               
            </DataArray>
            <DataArray type="UInt8"  Name="types" NumberOfComponents="1" format="ascii">
               
            </DataArray>
         </Cells>
         <PointData Scalars="Rank " Vectors="Displacement Velocity Traction ">
            <DataArray type="UInt32" Name="Rank" NumberOfComponents="1" format="ascii">
               0 0 0 0 0 0 0 0 0 0 0 0 0 0 0 0 0 0 0 0 0 0 0 0 0 
            </DataArray>
            <DataArray type="Float64" Name="Displacement" NumberOfComponents="3" format="ascii">
               6.76398e-08 6.75269e-08 -2.4163e-07  5.14062e-10 1.18272e-07 -2.17731e-07  -1.22529e-08 1.58059e-07 -1.96002e-07  -1.34825e-08 1.10477e-07 -2.15992e-07  -7.71676e-08 9.01557e-08 -2.40917e-07  1.18384e-07 5.49032e-10 -2.17739e-07  2.32129e-08 2.32463e-08 -1.62345e-07  -3.12341e-09 4.20567e-08 -1.13654e-07  -2.07665e-08 2.0129e-08 -1.62624e-07  -1.09871e-07 2.29438e-08 -2.15999e-07  1.5799e-07 -1.22161e-08 -1.96003e-07  4.20592e-08 -3.06559e-09 -1.13656e-07  2.84369e-09 2.8249e-09 -3.88351e-08  -3.86386e-08 3.21865e-09 -1.13976e-07  -1.55755e-07 1.33146e-08 -1.96423e-07  1.10393e-07 -1.34831e-08 -2.15979e-07  2.0114e-08 -2.07955e-08 -1.62633e-07  3.28098e-09 -3.86597e-08 -1.13984e-07  -2.22966e-08 -2.2278e-08 -1.6259e-07  -1.17807e-07 -1.94512e-09 -2.17785e-07  9.01874e-08 -7.7224e-08 -2.40895e-07  2.29354e-08 -1.09894e-07 -2.16015e-07  1.34528e-08 -1.55866e-07 -1.96462e-07  -1.99492e-09 -1.18106e-07 -2.1781e-07  -6.7741e-08 -6.79429e-08 -2.41524e-07  
            </DataArray>
            <DataArray type="Float64" Name="Velocity" NumberOfComponents="3" format="ascii">
               1.79902e-07 1.7934e-07 -6.82258e-07  -3.53954e-09 3.24572e-07 -6.15454e-07  -5.69199e-08 4.20545e-07 -5.54533e-07  -5.55114e-08 2.90318e-07 -6.06675e-07  -2.20439e-07 2.78087e-07 -6.80944e-07  3.25127e-07 -3.3759e-09 -6.15505e-07  7.42911e-08 7.44608e-08 -4.6824e-07  -1.37107e-08 1.32365e-07 -3.49711e-07  -6.38704e-08 6.19559e-08 -4.70579e-07  -2.87735e-07 9.61508e-08 -6.06166e-07  4.20177e-07 -5.67221e-08 -5.54528e-07  1.32368e-07 -1.33735e-08 -3.49718e-07  1.13329e-08 1.12322e-08 -1.74144e-07  -1.1794e-07 1.40476e-08 -3.51209e-07  -4.10834e-07 6.08593e-08 -5.56186e-07  2.89834e-07 -5.55039e-08 -6.06587e-07  6.18611e-08 -6.40393e-08 -4.70629e-07  1.4391e-08 -1.18071e-07 -3.51235e-07  -7.01712e-08 -7.0118e-08 -4.69438e-07  -3.2203e-07 -2.4235e-09 -6.15589e-07  2.78204e-07 -2.2073e-07 -6.80814e-07  9.61174e-08 -2.87864e-07 -6.06259e-07  6.15513e-08 -4.11433e-07 -5.56387e-07  -2.62525e-09 -3.23628e-07 -6.15731e-07  -1.80906e-07 -1.81987e-07 -6.82165e-07  
            </DataArray>
            <DataArray type="Float64" Name="Traction" NumberOfComponents="3" format="ascii">
               -5.38648e-07 -5.48832e-07 -7.43038e-06  -1.52661e-07 -9.31463e-07 -7.43038e-06  1.17172e-07 -1.29868e-06 -7.43038e-06  1.48246e-07 -8.82886e-07 -7.43038e-06  5.31348e-07 -6.05619e-07 -7.43038e-06  -9.33824e-07 -1.60975e-07 -7.43038e-06  -3.71045e-07 -3.68217e-07 -7.43038e-06  2.55197e-07 -6.1258e-07 -7.43038e-06  3.58025e-07 -3.56563e-07 -7.43038e-06  8.7539e-07 -2.02174e-07 -7.43038e-06  -1.30794e-06 1.17142e-07 -7.43038e-06  -6.19617e-07 2.54536e-07 -7.43038e-06  3.49341e-07 3.4758e-07 -7.43038e-06  6.1364e-07 2.03165e-07 -7.43038e-06  1.31062e-06 6.04795e-08 -7.43038e-06  -8.84676e-07 1.50452e-07 -7.43038e-06  -3.58008e-07 3.56123e-07 -7.43038e-06  2.02207e-07 6.09131e-07 -7.43038e-06  3.61433e-07 3.6405e-07 -7.43038e-06  9.29352e-07 1.46366e-07 -7.43038e-06  -5.96479e-07 5.35503e-07 -7.43038e-06  -1.92671e-07 8.73123e-07 -7.43038e-06  7.88943e-08 1.30185e-06 -7.43038e-06  1.75406e-07 9.35265e-07 -7.43038e-06  5.4805e-07 5.25153e-07 -7.43038e-06  
            </DataArray>
         </PointData> 
      </Piece>
   </UnstructuredGrid> 
</VTKFile>
