<?xml version="1.0"?>
<VTKFile type="UnstructuredGrid" version="0.1" byte_order="LittleEndian">
   <UnstructuredGrid>
      <Piece NumberOfPoints="25" NumberOfCells="0" > 
         <Points> 
            <DataArray type="Float64" Name="Position" NumberOfComponents="3" format="ascii"> 
               0  0  15  
               0.75  0  15  
               1.5  0  15  
               2.25  0  15  
               3  0  15  
               0  0.75  15  
               0.75  0.75  15  
               1.5  0.75  15  
               2.25  0.75  15  
               3  0.75  15  
               0  1.5  15  
               0.75  1.5  15  
               1.5  1.5  15  
               2.25  1.5  15  
               3  1.5  15  
               0  2.25  15  
               0.75  2.25  15  
               1.5  2.25  15  
               2.25  2.25  15  
               3  2.25  15  
               0  3  15  
               0.75  3  15  
               1.5  3  15  
               2.25  3  15  
               3  3  15  
            </DataArray>
         </Points> 

         <Cells>
            <DataArray type="Int32" Name="connectivity" NumberOfComponents="1" format="ascii">
               
            </DataArray> 
            <DataArray type="Int32" Name="offsets" NumberOfComponents="1" format="ascii">
               
            </DataArray>
            <DataArray type="UInt8"  Name="types" NumberOfComponents="1" format="ascii">
               
            </DataArray>
         </Cells>
         <PointData Scalars="Rank " Vectors="Displacement Velocity Traction ">
            <DataArray type="UInt32" Name="Rank" NumberOfComponents="1" format="ascii">
               0 0 0 0 0 0 0 0 0 0 0 0 0 0 0 0 0 0 0 0 0 0 0 0 0 
            </DataArray>
            <DataArray type="Float64" Name="Displacement" NumberOfComponents="3" format="ascii">
               3.10723e-05 1.08035e-05 -2.85279e-06  3.11461e-05 -4.18919e-07 -3.69666e-06  2.85304e-05 -3.96107e-07 -4.19043e-06  2.52773e-05 3.61588e-06 -4.11267e-06  2.46284e-05 2.93822e-06 -2.85233e-06  7.38237e-06 1.05983e-05 -3.63867e-06  7.76348e-06 9.62511e-08 -4.75802e-06  7.93618e-06 -1.26937e-07 -5.44023e-06  7.74006e-06 3.33401e-06 -5.18701e-06  8.07909e-06 1.65309e-06 -3.81307e-06  9.15044e-06 1.00556e-05 -4.13812e-06  7.8223e-06 8.64402e-07 -5.45114e-06  3.99875e-06 -2.04243e-06 -6.09108e-06  2.71655e-07 2.69512e-06 -5.4809e-06  -1.14931e-06 -4.81499e-07 -4.08749e-06  7.6607e-06 8.93456e-06 -4.05406e-06  7.25007e-06 1.05914e-06 -5.19114e-06  7.08484e-06 -4.3498e-06 -5.48495e-06  7.83706e-06 2.55654e-06 -4.82531e-06  7.48e-06 9.95337e-07 -3.67006e-06  -3.53393e-06 8.40647e-06 -2.82156e-06  -3.88844e-06 8.72742e-07 -3.8432e-06  -5.09162e-06 -5.92695e-06 -4.11032e-06  -3.04746e-06 1.33618e-06 -3.66063e-06  -6.84932e-07 2.90759e-06 -2.81983e-06  
            </DataArray>
            <DataArray type="Float64" Name="Velocity" NumberOfComponents="3" format="ascii">
               3.25261e-05 1.0172e-05 3.89167e-06  3.25803e-05 1.08765e-06 3.12301e-06  3.0676e-05 3.51992e-06 2.50488e-06  2.80968e-05 4.77396e-06 2.68419e-06  2.76155e-05 1.14217e-06 3.83261e-06  1.18979e-05 1.06496e-05 3.20572e-06  1.22716e-05 1.63462e-06 1.66378e-06  1.3415e-05 2.76937e-06 9.68013e-07  1.47852e-05 3.6592e-06 1.61894e-06  1.57632e-05 1.88703e-07 2.63143e-06  1.1746e-05 1.03934e-05 2.57874e-06  1.08391e-05 2.12393e-06 9.61783e-07  8.38594e-06 -3.46928e-07 -5.63088e-08  6.69617e-06 1.55664e-06 9.73038e-07  6.53352e-06 -1.96405e-06 2.47372e-06  8.6458e-06 9.1616e-06 2.74254e-06  8.59686e-06 1.74898e-06 1.61078e-06  9.19891e-06 -3.1057e-06 9.49902e-07  1.0546e-05 6.87063e-07 1.68392e-06  1.06506e-05 -1.43978e-06 3.04167e-06  2.81555e-06 8.87505e-06 3.89961e-06  2.94447e-06 1.00847e-06 2.64334e-06  3.2132e-06 -5.15245e-06 2.50571e-06  5.76355e-06 -4.03791e-07 3.1308e-06  7.70731e-06 1.90854e-07 3.75179e-06  
            </DataArray>
            <DataArray type="Float64" Name="Traction" NumberOfComponents="3" format="ascii">
               0 0 0  0 0 0  0 0 0  0 0 0  0 0 0  0 0 0  0 0 0  0 0 0  0 0 0  0 0 0  0 0 0  0 0 0  0 0 0  0 0 0  0 0 0  0 0 0  0 0 0  0 0 0  0 0 0  0 0 0  0 0 0  0 0 0  0 0 0  0 0 0  0 0 0  
            </DataArray>
         </PointData> 
      </Piece>
   </UnstructuredGrid> 
</VTKFile>
