<?xml version="1.0"?>
<VTKFile type="UnstructuredGrid" version="0.1" byte_order="LittleEndian">
   <UnstructuredGrid>
      <Piece NumberOfPoints="25" NumberOfCells="0" > 
         <Points> 
            <DataArray type="Float64" Name="Position" NumberOfComponents="3" format="ascii"> 
               0  0  20  
               0.75  0  20  
               1.5  0  20  
               2.25  0  20  
               3  0  20  
               0  0.75  20  
               0.75  0.75  20  
               1.5  0.75  20  
               2.25  0.75  20  
               3  0.75  20  
               0  1.5  20  
               0.75  1.5  20  
               1.5  1.5  20  
               2.25  1.5  20  
               3  1.5  20  
               0  2.25  20  
               0.75  2.25  20  
               1.5  2.25  20  
               2.25  2.25  20  
               3  2.25  20  
               0  3  20  
               0.75  3  20  
               1.5  3  20  
               2.25  3  20  
               3  3  20  
            </DataArray>
         </Points> 

         <Cells>
            <DataArray type="Int32" Name="connectivity" NumberOfComponents="1" format="ascii">
               
            </DataArray> 
            <DataArray type="Int32" Name="offsets" NumberOfComponents="1" format="ascii">
               
            </DataArray>
            <DataArray type="UInt8"  Name="types" NumberOfComponents="1" format="ascii">
               
            </DataArray>
         </Cells>
         <PointData Scalars="Rank " Vectors="Displacement Velocity Traction ">
            <DataArray type="UInt32" Name="Rank" NumberOfComponents="1" format="ascii">
               0 0 0 0 0 0 0 0 0 0 0 0 0 0 0 0 0 0 0 0 0 0 0 0 0 
            </DataArray>
            <DataArray type="Float64" Name="Displacement" NumberOfComponents="3" format="ascii">
               9.356e-07 9.7149e-07 -4.304e-06  5.53448e-08 1.55153e-06 -4.4608e-06  -7.77019e-07 1.62395e-06 -4.41851e-06  -7.02058e-07 1.27297e-06 -4.51075e-06  -1.05831e-06 2.01597e-06 -4.29322e-06  1.5002e-06 7.4744e-08 -4.45333e-06  6.03107e-07 6.26515e-07 -4.36469e-06  -2.75648e-07 9.06885e-07 -4.36155e-06  -6.67537e-07 7.28059e-07 -4.61109e-06  -1.14034e-06 1.24986e-06 -4.31808e-06  1.57927e-06 -7.46501e-07 -4.40569e-06  8.93483e-07 -2.44399e-07 -4.36411e-06  -3.66524e-08 -3.51627e-08 -4.17014e-06  -8.54491e-07 1.98429e-07 -4.39311e-06  -1.47838e-06 7.47018e-07 -4.36277e-06  1.23194e-06 -6.9988e-07 -4.48985e-06  7.11101e-07 -6.68716e-07 -4.61224e-06  2.12666e-07 -8.64905e-07 -4.3877e-06  -5.70149e-07 -5.82774e-07 -4.41498e-06  -1.44375e-06 -9.9016e-08 -4.43038e-06  1.981e-06 -1.0708e-06 -4.28521e-06  1.24091e-06 -1.15636e-06 -4.33574e-06  7.64872e-07 -1.52e-06 -4.37977e-06  -1.11805e-07 -1.50299e-06 -4.44573e-06  -1.01461e-06 -1.01621e-06 -4.26417e-06  
            </DataArray>
            <DataArray type="Float64" Name="Velocity" NumberOfComponents="3" format="ascii">
               -8.8943e-08 -1.99147e-08 -6.98883e-07  2.70969e-07 -4.47449e-07 -1.2806e-06  -2.22251e-09 -8.11975e-07 -1.68948e-06  -7.56497e-08 -3.37725e-07 -1.55255e-06  4.23122e-07 9.45105e-08 -6.84528e-07  -5.64311e-07 3.08782e-07 -1.25377e-06  5.7831e-08 1.06896e-07 -2.10792e-06  -2.04646e-07 -6.96955e-09 -2.69656e-06  -2.63302e-07 2.90555e-07 -2.36735e-06  4.82614e-07 3.51252e-07 -1.34981e-06  -8.83726e-07 5.02642e-08 -1.66603e-06  -3.8199e-08 -1.64182e-07 -2.70364e-06  -1.45469e-07 -1.31464e-07 -3.31477e-06  -1.02111e-07 7.08284e-08 -2.71757e-06  8.5589e-07 -3.93378e-08 -1.60279e-06  -3.85856e-07 -6.52087e-08 -1.52308e-06  2.60144e-07 -2.49448e-07 -2.36799e-06  7.1471e-08 -9.68919e-08 -2.71588e-06  -1.1294e-07 -1.07499e-07 -2.14941e-06  5.04577e-07 -2.84071e-07 -1.24825e-06  3.44781e-08 4.09196e-07 -6.77146e-07  3.1926e-07 4.7057e-07 -1.37257e-06  -5.04094e-08 8.29817e-07 -1.62398e-06  -3.30747e-07 4.89695e-07 -1.25774e-06  -3.09933e-08 2.26361e-08 -6.43994e-07  
            </DataArray>
            <DataArray type="Float64" Name="Traction" NumberOfComponents="3" format="ascii">
               -6.27542e-06 -5.37074e-06 -1.37507e-05  -2.32255e-06 -9.23156e-06 -1.37507e-05  3.72593e-06 -8.99308e-06 -1.37507e-05  2.20169e-06 -5.69211e-06 -1.37507e-05  2.75572e-06 -1.04529e-05 -1.37507e-05  -9.16281e-06 -1.14521e-06 -1.37507e-05  -3.78289e-06 -3.59442e-06 -1.37507e-05  3.9621e-06 -5.73653e-06 -1.37507e-05  3.49987e-06 -4.27272e-06 -1.37507e-05  3.4777e-06 -5.95079e-06 -1.37507e-05  -9.44387e-06 4.56252e-06 -1.37507e-05  -6.18508e-06 3.96131e-06 -1.37507e-05  1.91057e-06 1.98916e-06 -1.37507e-05  5.82872e-06 -1.04192e-06 -1.37507e-05  8.4188e-06 -2.30234e-06 -1.37507e-05  -5.80148e-06 2.97276e-06 -1.37507e-05  -4.55002e-06 3.59855e-06 -1.37507e-05  -1.33948e-06 5.79195e-06 -1.37507e-05  2.88115e-06 3.28646e-06 -1.37507e-05  7.82447e-06 9.20322e-07 -1.37507e-05  -9.73437e-06 3.69053e-06 -1.37507e-05  -5.55983e-06 3.71034e-06 -1.37507e-05  -1.98236e-06 8.55517e-06 -1.37507e-05  1.41294e-06 8.70266e-06 -1.37507e-05  4.85026e-06 4.67488e-06 -1.37507e-05  
            </DataArray>
         </PointData> 
      </Piece>
   </UnstructuredGrid> 
</VTKFile>
