<?xml version="1.0"?>
<VTKFile type="UnstructuredGrid" version="0.1" byte_order="LittleEndian">
   <UnstructuredGrid>
      <Piece NumberOfPoints="25" NumberOfCells="0" > 
         <Points> 
            <DataArray type="Float64" Name="Position" NumberOfComponents="3" format="ascii"> 
               0  0  15  
               0.75  0  15  
               1.5  0  15  
               2.25  0  15  
               3  0  15  
               0  0.75  15  
               0.75  0.75  15  
               1.5  0.75  15  
               2.25  0.75  15  
               3  0.75  15  
               0  1.5  15  
               0.75  1.5  15  
               1.5  1.5  15  
               2.25  1.5  15  
               3  1.5  15  
               0  2.25  15  
               0.75  2.25  15  
               1.5  2.25  15  
               2.25  2.25  15  
               3  2.25  15  
               0  3  15  
               0.75  3  15  
               1.5  3  15  
               2.25  3  15  
               3  3  15  
            </DataArray>
         </Points> 

         <Cells>
            <DataArray type="Int32" Name="connectivity" NumberOfComponents="1" format="ascii">
               
            </DataArray> 
            <DataArray type="Int32" Name="offsets" NumberOfComponents="1" format="ascii">
               
            </DataArray>
            <DataArray type="UInt8"  Name="types" NumberOfComponents="1" format="ascii">
               
            </DataArray>
         </Cells>
         <PointData Scalars="Rank " Vectors="Displacement Velocity Traction ">
            <DataArray type="UInt32" Name="Rank" NumberOfComponents="1" format="ascii">
               0 0 0 0 0 0 0 0 0 0 0 0 0 0 0 0 0 0 0 0 0 0 0 0 0 
            </DataArray>
            <DataArray type="Float64" Name="Displacement" NumberOfComponents="3" format="ascii">
               0.00175276 0.00197964 -0.00390777  0.00160153 0.00017304 -0.00390358  0.00114569 -0.000452254 -0.00377157  0.000642462 -0.000462242 -0.00393138  0.000440064 -0.00148107 -0.00393909  -0.000130194 0.00182745 -0.00389212  -0.00016539 0.000133045 -0.00359778  -0.000516862 -0.00030529 -0.00335461  -0.000843364 -0.000471932 -0.00373831  -0.000834436 -0.00172196 -0.00385259  -0.000737319 0.00137805 -0.0037574  -0.000588908 -0.000233452 -0.00335381  -0.000804178 -0.000530631 -0.00288647  -0.00101598 -0.000822299 -0.00337318  -0.000863661 -0.00226732 -0.00376478  -0.000777639 0.00087894 -0.00391819  -0.000781161 -0.000571796 -0.0037387  -0.00111841 -0.000746887 -0.00337289  -0.00146939 -0.00118323 -0.00363247  -0.00150722 -0.00271753 -0.00390143  -0.00183553 0.000674992 -0.00390787  -0.00206743 -0.000568531 -0.00384002  -0.00259534 -0.000599387 -0.00375108  -0.00303113 -0.00122743 -0.00388821  -0.00317058 -0.00286178 -0.00388932  
            </DataArray>
            <DataArray type="Float64" Name="Velocity" NumberOfComponents="3" format="ascii">
               0.000391181 0.00055189 -0.00401225  0.000313018 3.81171e-05 -0.00396245  0.000180168 -0.000188929 -0.0038165  6.35865e-05 -0.000212011 -0.00398995  -4.60246e-06 -0.000459995 -0.00402012  -0.000109869 0.000472198 -0.0039627  -0.000166881 -2.08922e-05 -0.00360849  -0.000311021 -0.000183457 -0.00332091  -0.000431273 -0.000248224 -0.00374034  -0.000451774 -0.000575767 -0.00391494  -0.000324561 0.000333813 -0.00381055  -0.00031634 -0.000168235 -0.0033183  -0.000396279 -0.000264894 -0.00278988  -0.000483759 -0.000363602 -0.00334287  -0.000471043 -0.000767302 -0.00380862  -0.000351814 0.000211756 -0.00397965  -0.000387286 -0.000289091 -0.00373633  -0.00050575 -0.000350075 -0.00334084  -0.000643479 -0.000494613 -0.00364685  -0.000698459 -0.000932923 -0.00395955  -0.00061519 0.00014172 -0.00400096  -0.000731475 -0.000307008 -0.00390642  -0.000926755 -0.000331698 -0.00380181  -0.00109843 -0.000543768 -0.0039564  -0.00118454 -0.00101538 -0.00398432  
            </DataArray>
            <DataArray type="Float64" Name="Traction" NumberOfComponents="3" format="ascii">
               0 0 0  0 0 0  0 0 0  0 0 0  0 0 0  0 0 0  0 0 0  0 0 0  0 0 0  0 0 0  0 0 0  0 0 0  0 0 0  0 0 0  0 0 0  0 0 0  0 0 0  0 0 0  0 0 0  0 0 0  0 0 0  0 0 0  0 0 0  0 0 0  0 0 0  
            </DataArray>
         </PointData> 
      </Piece>
   </UnstructuredGrid> 
</VTKFile>
