<?xml version="1.0"?>
<VTKFile type="UnstructuredGrid" version="0.1" byte_order="LittleEndian">
   <UnstructuredGrid>
      <Piece NumberOfPoints="25" NumberOfCells="0" > 
         <Points> 
            <DataArray type="Float64" Name="Position" NumberOfComponents="3" format="ascii"> 
               0  0  20  
               0.75  0  20  
               1.5  0  20  
               2.25  0  20  
               3  0  20  
               0  0.75  20  
               0.75  0.75  20  
               1.5  0.75  20  
               2.25  0.75  20  
               3  0.75  20  
               0  1.5  20  
               0.75  1.5  20  
               1.5  1.5  20  
               2.25  1.5  20  
               3  1.5  20  
               0  2.25  20  
               0.75  2.25  20  
               1.5  2.25  20  
               2.25  2.25  20  
               3  2.25  20  
               0  3  20  
               0.75  3  20  
               1.5  3  20  
               2.25  3  20  
               3  3  20  
            </DataArray>
         </Points> 

         <Cells>
            <DataArray type="Int32" Name="connectivity" NumberOfComponents="1" format="ascii">
               
            </DataArray> 
            <DataArray type="Int32" Name="offsets" NumberOfComponents="1" format="ascii">
               
            </DataArray>
            <DataArray type="UInt8"  Name="types" NumberOfComponents="1" format="ascii">
               
            </DataArray>
         </Cells>
         <PointData Scalars="Rank " Vectors="Displacement Velocity Traction ">
            <DataArray type="UInt32" Name="Rank" NumberOfComponents="1" format="ascii">
               0 0 0 0 0 0 0 0 0 0 0 0 0 0 0 0 0 0 0 0 0 0 0 0 0 
            </DataArray>
            <DataArray type="Float64" Name="Displacement" NumberOfComponents="3" format="ascii">
               -2.43225e-06 -2.50201e-06 2.4262e-06  6.99635e-07 -3.97001e-06 1.44072e-06  2.02195e-06 -3.75564e-06 8.2579e-07  1.96325e-06 -2.84592e-06 9.35062e-07  3.66519e-06 -4.04649e-06 2.28445e-06  -4.15705e-06 5.90239e-07 1.54805e-06  -1.2811e-06 -1.22577e-06 -2.19734e-07  8.31831e-08 -1.73163e-06 -7.81669e-07  9.9762e-07 -1.13634e-06 -2.14105e-07  2.86794e-06 -2.02103e-06 7.69996e-07  -3.93725e-06 2.02495e-06 9.90865e-07  -1.82854e-06 9.82174e-08 -7.65928e-07  -2.52933e-07 -1.64115e-07 -1.76191e-06  1.1999e-06 -1.46448e-07 -8.00827e-07  3.26748e-06 -1.67539e-06 6.26616e-07  -3.07918e-06 1.98261e-06 1.10157e-06  -1.31062e-06 1.07333e-06 -2.25444e-07  -3.10298e-07 1.44688e-06 -8.19922e-07  8.09542e-07 1.16548e-06 -1.81762e-07  3.29268e-06 -4.40544e-07 1.14635e-06  -4.45893e-06 3.70271e-06 2.53531e-06  -2.43287e-06 3.03589e-06 8.28447e-07  -1.97309e-06 3.61351e-06 7.7607e-07  -7.58374e-07 3.72947e-06 1.3871e-06  1.9254e-06 2.30655e-06 1.94021e-06  
            </DataArray>
            <DataArray type="Float64" Name="Velocity" NumberOfComponents="3" format="ascii">
               -1.42598e-06 -1.84095e-06 2.05859e-06  -2.73818e-07 -1.28409e-06 3.02467e-06  1.2161e-06 1.96805e-07 3.72932e-06  1.57655e-06 -6.52935e-07 3.48795e-06  1.16241e-06 -2.66051e-06 1.98563e-06  -9.05044e-07 -7.10775e-07 2.94298e-06  -8.8792e-07 -1.20719e-06 4.2862e-06  6.4587e-07 -1.03607e-06 5.63826e-06  1.51263e-06 -1.49172e-06 5.07134e-06  5.02985e-07 -2.14849e-06 2.83289e-06  4.39918e-07 8.12866e-07 3.78226e-06  -8.1765e-07 3.48097e-07 5.69584e-06  4.23706e-07 2.63348e-07 6.82472e-06  1.03898e-06 -5.76443e-08 5.64388e-06  -6.1093e-07 -4.60439e-07 3.23991e-06  -6.52662e-07 1.36839e-06 3.59726e-06  -1.4214e-06 1.40074e-06 5.08853e-06  -1.32811e-08 1.13772e-06 5.66941e-06  9.93113e-07 1.1822e-06 4.43247e-06  4.964e-07 8.54383e-07 2.57215e-06  -2.89096e-06 1.08103e-06 2.24559e-06  -2.37191e-06 5.43564e-07 2.94236e-06  -5.52586e-07 -3.31225e-07 3.48622e-06  8.64556e-07 8.70458e-07 2.82803e-06  1.51482e-06 1.53986e-06 1.39208e-06  
            </DataArray>
            <DataArray type="Float64" Name="Traction" NumberOfComponents="3" format="ascii">
               1.03268e-05 9.69471e-06 1.93384e-05  -8.82004e-06 3.31899e-05 1.93384e-05  -1.47551e-05 2.84842e-05 1.93384e-05  -1.73174e-05 2.17609e-05 1.93384e-05  -3.23624e-05 3.78936e-05 1.93384e-05  3.75822e-05 -8.95983e-06 1.93384e-05  1.48214e-05 1.15493e-05 1.93384e-05  -8.6528e-07 1.39461e-05 1.93384e-05  -8.66206e-06 1.00103e-05 1.93384e-05  -2.18593e-05 2.03555e-05 1.93384e-05  3.06508e-05 -1.58613e-05 1.93384e-05  1.51118e-05 -2.80869e-06 1.93384e-05  -1.75153e-06 -1.73308e-06 1.93384e-05  -1.02071e-05 1.21819e-06 1.93384e-05  -2.39117e-05 1.41964e-05 1.93384e-05  2.58843e-05 -1.98161e-05 1.93384e-05  1.21837e-05 -1.01371e-05 1.93384e-05  2.89447e-07 -1.16596e-05 1.93384e-05  -9.98763e-06 -1.00009e-05 1.93384e-05  -2.73354e-05 5.61002e-06 1.93384e-05  4.19135e-05 -3.54966e-05 1.93384e-05  2.24439e-05 -2.32152e-05 1.93384e-05  1.29963e-05 -2.59002e-05 1.93384e-05  5.16734e-06 -2.83693e-05 1.93384e-05  -1.11266e-05 -1.25245e-05 1.93384e-05  
            </DataArray>
         </PointData> 
      </Piece>
   </UnstructuredGrid> 
</VTKFile>
