<?xml version="1.0"?>
<VTKFile type="UnstructuredGrid" version="0.1" byte_order="LittleEndian">
   <UnstructuredGrid>
      <Piece NumberOfPoints="25" NumberOfCells="0" > 
         <Points> 
            <DataArray type="Float64" Name="Position" NumberOfComponents="3" format="ascii"> 
               0  0  15  
               0.75  0  15  
               1.5  0  15  
               2.25  0  15  
               3  0  15  
               0  0.75  15  
               0.75  0.75  15  
               1.5  0.75  15  
               2.25  0.75  15  
               3  0.75  15  
               0  1.5  15  
               0.75  1.5  15  
               1.5  1.5  15  
               2.25  1.5  15  
               3  1.5  15  
               0  2.25  15  
               0.75  2.25  15  
               1.5  2.25  15  
               2.25  2.25  15  
               3  2.25  15  
               0  3  15  
               0.75  3  15  
               1.5  3  15  
               2.25  3  15  
               3  3  15  
            </DataArray>
         </Points> 

         <Cells>
            <DataArray type="Int32" Name="connectivity" NumberOfComponents="1" format="ascii">
               
            </DataArray> 
            <DataArray type="Int32" Name="offsets" NumberOfComponents="1" format="ascii">
               
            </DataArray>
            <DataArray type="UInt8"  Name="types" NumberOfComponents="1" format="ascii">
               
            </DataArray>
         </Cells>
         <PointData Scalars="Rank " Vectors="Displacement Velocity Traction ">
            <DataArray type="UInt32" Name="Rank" NumberOfComponents="1" format="ascii">
               0 0 0 0 0 0 0 0 0 0 0 0 0 0 0 0 0 0 0 0 0 0 0 0 0 
            </DataArray>
            <DataArray type="Float64" Name="Displacement" NumberOfComponents="3" format="ascii">
               0.00167008 0.00186487 -0.00319169  0.00153356 0.00016632 -0.00319385  0.00110555 -0.000412283 -0.00308646  0.00062802 -0.000419563 -0.00321622  0.000439233 -0.00138478 -0.00322061  -0.00010699 0.00172767 -0.00318264  -0.000132434 0.000136494 -0.0029477  -0.000455068 -0.000268465 -0.00275279  -0.000757003 -0.000423305 -0.00306396  -0.00074491 -0.00160352 -0.00315097  -0.000670082 0.00130712 -0.0030737  -0.000525338 -0.000200524 -0.00275247  -0.000724951 -0.000477879 -0.00237528  -0.000919726 -0.000750055 -0.00276741  -0.000771733 -0.00210992 -0.00308085  -0.000706763 0.000834737 -0.00320518  -0.000704477 -0.000514221 -0.00306504  -0.00101747 -0.000677637 -0.00276748  -0.00134071 -0.00108463 -0.00297544  -0.00136899 -0.0025267 -0.0031919  -0.00170759 0.000644772 -0.00319356  -0.00191729 -0.000508306 -0.00314021  -0.00240556 -0.000535619 -0.0030687  -0.00280674 -0.00112048 -0.00317958  -0.00293008 -0.00265557 -0.00317776  
            </DataArray>
            <DataArray type="Float64" Name="Velocity" NumberOfComponents="3" format="ascii">
               0.000434878 0.000594735 -0.00315324  0.00036523 2.9931e-05 -0.00313699  0.000220407 -0.000209592 -0.00303475  8.09206e-05 -0.000213425 -0.00316354  1.21153e-05 -0.000500379 -0.00316909  -0.000121193 0.000523717 -0.00313425  -0.000162152 -1.32834e-05 -0.00288937  -0.00030615 -0.000183526 -0.00268959  -0.000431538 -0.000237299 -0.00299984  -0.000443115 -0.00060685 -0.00310325  -0.000346339 0.000374363 -0.00302662  -0.000317854 -0.000160423 -0.0026874  -0.000394873 -0.000261714 -0.00230724  -0.00047807 -0.000357935 -0.00270708  -0.000447393 -0.000804061 -0.00303079  -0.000355248 0.000230118 -0.00315246  -0.000378595 -0.000285933 -0.00299697  -0.000502577 -0.000341799 -0.00270553  -0.000641957 -0.000490151 -0.00292038  -0.000683141 -0.000972216 -0.00313781  -0.000661656 0.000159422 -0.00314668  -0.000768241 -0.000295056 -0.00309377  -0.000968444 -0.000305225 -0.00302215  -0.0011423 -0.000525222 -0.00313201  -0.00121831 -0.00104446 -0.00313587  
            </DataArray>
            <DataArray type="Float64" Name="Traction" NumberOfComponents="3" format="ascii">
               0.0348689 0.0360605 -0.0925357  0.00888489 0.041734 -0.0925357  -0.00920735 0.0431233 -0.0925357  -0.0281944 0.0430986 -0.0925357  -0.0522661 0.0459603 -0.0925357  0.0422485 0.0104062 -0.0925357  0.0158444 0.017147 -0.0925357  -0.00099848 0.0174418 -0.0925357  -0.0216631 0.0174231 -0.0925357  -0.0466487 0.0229624 -0.0925357  0.0436874 -0.00805922 -0.0925357  0.0156733 0.000118605 -0.0925357  -0.00112861 0.000117308 -0.0925357  -0.0220031 -0.000863891 -0.0925357  -0.0467719 0.00535971 -0.0925357  0.0435028 -0.0275319 -0.0925357  0.0162919 -0.0209082 -0.0925357  -0.00184946 -0.021148 -0.0925357  -0.0220463 -0.0213463 -0.0925357  -0.0422749 -0.0159794 -0.0925357  0.0466176 -0.0526774 -0.0925357  0.0222776 -0.0458426 -0.0925357  0.00484134 -0.0453103 -0.0925357  -0.0163431 -0.0416933 -0.0925357  -0.0330689 -0.0326734 -0.0925357  
            </DataArray>
         </PointData> 
      </Piece>
   </UnstructuredGrid> 
</VTKFile>
