<?xml version="1.0"?>
<VTKFile type="UnstructuredGrid" version="0.1" byte_order="LittleEndian">
   <UnstructuredGrid>
      <Piece NumberOfPoints="25" NumberOfCells="0" > 
         <Points> 
            <DataArray type="Float64" Name="Position" NumberOfComponents="3" format="ascii"> 
               0  0  20  
               0.75  0  20  
               1.5  0  20  
               2.25  0  20  
               3  0  20  
               0  0.75  20  
               0.75  0.75  20  
               1.5  0.75  20  
               2.25  0.75  20  
               3  0.75  20  
               0  1.5  20  
               0.75  1.5  20  
               1.5  1.5  20  
               2.25  1.5  20  
               3  1.5  20  
               0  2.25  20  
               0.75  2.25  20  
               1.5  2.25  20  
               2.25  2.25  20  
               3  2.25  20  
               0  3  20  
               0.75  3  20  
               1.5  3  20  
               2.25  3  20  
               3  3  20  
            </DataArray>
         </Points> 

         <Cells>
            <DataArray type="Int32" Name="connectivity" NumberOfComponents="1" format="ascii">
               
            </DataArray> 
            <DataArray type="Int32" Name="offsets" NumberOfComponents="1" format="ascii">
               
            </DataArray>
            <DataArray type="UInt8"  Name="types" NumberOfComponents="1" format="ascii">
               
            </DataArray>
         </Cells>
         <PointData Scalars="Rank " Vectors="Displacement Velocity Traction ">
            <DataArray type="UInt32" Name="Rank" NumberOfComponents="1" format="ascii">
               0 0 0 0 0 0 0 0 0 0 0 0 0 0 0 0 0 0 0 0 0 0 0 0 0 
            </DataArray>
            <DataArray type="Float64" Name="Displacement" NumberOfComponents="3" format="ascii">
               0 0 0  0 0 0  0 0 0  0 0 0  0 0 0  0 0 0  0 0 0  0 0 0  0 0 0  0 0 0  0 0 0  0 0 0  0 0 0  0 0 0  0 0 0  0 0 0  0 0 0  0 0 0  0 0 0  0 0 0  0 0 0  0 0 0  0 0 0  0 0 0  0 0 0  
            </DataArray>
            <DataArray type="Float64" Name="Velocity" NumberOfComponents="3" format="ascii">
               0 0 0  0 0 0  0 0 0  0 0 0  0 0 0  0 0 0  0 0 0  0 0 0  0 0 0  0 0 0  0 0 0  0 0 0  0 0 0  0 0 0  0 0 0  0 0 0  0 0 0  0 0 0  0 0 0  0 0 0  0 0 0  0 0 0  0 0 0  0 0 0  0 0 0  
            </DataArray>
            <DataArray type="Float64" Name="Traction" NumberOfComponents="3" format="ascii">
               -3.4231e-06 -3.40525e-06 -2.44707e-05  -9.6478e-07 -6.14151e-06 -2.44707e-05  1.34495e-06 -7.40945e-06 -2.44707e-05  1.48613e-06 -4.89144e-06 -2.44707e-05  3.67979e-06 -5.27805e-06 -2.44707e-05  -6.16321e-06 -9.30292e-07 -2.44707e-05  -2.4852e-06 -2.46102e-06 -2.44707e-05  1.59924e-06 -3.77617e-06 -2.44707e-05  2.2324e-06 -2.26649e-06 -2.44707e-05  4.72189e-06 -2.40924e-06 -2.44707e-05  -7.53857e-06 1.40815e-06 -2.44707e-05  -3.88637e-06 1.58265e-06 -2.44707e-05  1.47304e-06 1.47884e-06 -2.44707e-05  3.746e-06 5.33017e-07 -2.44707e-05  7.44587e-06 -4.32692e-07 -2.44707e-05  -4.91455e-06 1.56576e-06 -2.44707e-05  -2.3016e-06 2.20443e-06 -2.44707e-05  5.22019e-07 3.70371e-06 -2.44707e-05  2.32968e-06 2.34007e-06 -2.44707e-05  5.97456e-06 7.77793e-07 -2.44707e-05  -5.09904e-06 3.78702e-06 -2.44707e-05  -2.24335e-06 4.67844e-06 -2.44707e-05  -2.00665e-07 7.37701e-06 -2.44707e-05  1.11373e-06 6.06323e-06 -2.44707e-05  3.48975e-06 3.23539e-06 -2.44707e-05  
            </DataArray>
         </PointData> 
      </Piece>
   </UnstructuredGrid> 
</VTKFile>
