<?xml version="1.0"?>
<VTKFile type="UnstructuredGrid" version="0.1" byte_order="LittleEndian">
   <UnstructuredGrid>
      <Piece NumberOfPoints="25" NumberOfCells="0" > 
         <Points> 
            <DataArray type="Float64" Name="Position" NumberOfComponents="3" format="ascii"> 
               0  0  15  
               0.75  0  15  
               1.5  0  15  
               2.25  0  15  
               3  0  15  
               0  0.75  15  
               0.75  0.75  15  
               1.5  0.75  15  
               2.25  0.75  15  
               3  0.75  15  
               0  1.5  15  
               0.75  1.5  15  
               1.5  1.5  15  
               2.25  1.5  15  
               3  1.5  15  
               0  2.25  15  
               0.75  2.25  15  
               1.5  2.25  15  
               2.25  2.25  15  
               3  2.25  15  
               0  3  15  
               0.75  3  15  
               1.5  3  15  
               2.25  3  15  
               3  3  15  
            </DataArray>
         </Points> 

         <Cells>
            <DataArray type="Int32" Name="connectivity" NumberOfComponents="1" format="ascii">
               
            </DataArray> 
            <DataArray type="Int32" Name="offsets" NumberOfComponents="1" format="ascii">
               
            </DataArray>
            <DataArray type="UInt8"  Name="types" NumberOfComponents="1" format="ascii">
               
            </DataArray>
         </Cells>
         <PointData Scalars="Rank " Vectors="Displacement Velocity Traction ">
            <DataArray type="UInt32" Name="Rank" NumberOfComponents="1" format="ascii">
               0 0 0 0 0 0 0 0 0 0 0 0 0 0 0 0 0 0 0 0 0 0 0 0 0 
            </DataArray>
            <DataArray type="Float64" Name="Displacement" NumberOfComponents="3" format="ascii">
               0.000280619 0.000181683 -2.58419e-05  0.000273289 4.37074e-05 -2.23e-05  0.000240789 2.67331e-05 -1.92375e-05  0.000203186 8.62763e-06 -2.10542e-05  0.000190955 -7.10292e-05 -2.50603e-05  9.56718e-05 0.00017669 -2.28133e-05  9.83669e-05 4.60054e-05 -1.55938e-05  9.36054e-05 2.92328e-05 -1.02426e-05  9.21644e-05 3.72976e-06 -1.50764e-05  9.87802e-05 -8.28382e-05 -2.12474e-05  5.88811e-05 0.000150187 -1.9657e-05  6.43784e-05 3.31532e-05 -1.01981e-05  4.62934e-05 4.21948e-07 -3.00085e-06  3.36e-05 -2.2536e-05 -1.04513e-05  4.24774e-05 -0.000114475 -1.97963e-05  2.29835e-05 0.000117198 -2.11884e-05  2.63003e-05 1.70623e-05 -1.49273e-05  2.04006e-05 -2.55685e-05 -1.03315e-05  1.70741e-05 -4.46211e-05 -1.55211e-05  1.96628e-05 -0.000134422 -2.26755e-05  -4.09716e-05 0.000106086 -2.54439e-05  -4.73451e-05 1.23645e-05 -2.13743e-05  -6.38696e-05 -3.11346e-05 -1.97045e-05  -6.84714e-05 -5.25947e-05 -2.26494e-05  -6.42261e-05 -0.000134812 -2.60805e-05  
            </DataArray>
            <DataArray type="Float64" Name="Velocity" NumberOfComponents="3" format="ascii">
               0.00018398 0.000163887 -5.98784e-05  0.000175733 3.58607e-05 -5.43859e-05  0.000143866 3.92225e-06 -4.91198e-05  0.000106508 -1.25805e-05 -5.24925e-05  9.25564e-05 -9.35718e-05 -5.80711e-05  4.24564e-05 0.000156 -5.51805e-05  4.3463e-05 3.6064e-05 -4.23764e-05  2.83242e-05 1.25327e-05 -3.43376e-05  1.4992e-05 -1.27944e-05 -4.34149e-05  1.80362e-05 -0.000105716 -5.11419e-05  8.18397e-07 0.000125661 -5.01878e-05  1.09746e-05 1.66749e-05 -3.44222e-05  -3.14156e-06 -7.64037e-06 -2.16591e-05  -1.39686e-05 -3.71609e-05 -3.46683e-05  -1.64461e-06 -0.000138888 -4.86362e-05  -1.9073e-05 9.00071e-05 -5.33239e-05  -1.64119e-05 -2.57602e-06 -4.32343e-05  -3.19623e-05 -2.60827e-05 -3.45482e-05  -4.65745e-05 -6.16769e-05 -4.26412e-05  -4.44389e-05 -0.000167252 -5.34602e-05  -8.26065e-05 7.69877e-05 -5.98278e-05  -9.25391e-05 -3.81779e-06 -5.16801e-05  -0.000118171 -2.10523e-05 -4.92446e-05  -0.000137587 -6.58923e-05 -5.42989e-05  -0.000141229 -0.000174894 -5.80868e-05  
            </DataArray>
            <DataArray type="Float64" Name="Traction" NumberOfComponents="3" format="ascii">
               0.00377696 0.00361608 -0.00571695  -0.000387668 0.0040194 -0.00571695  -0.000518964 0.00425263 -0.00571695  -0.00064054 0.00457237 -0.00571695  -0.0049854 0.00445294 -0.00571695  0.00471814 -0.000379457 -0.00571695  0.000524717 0.000916959 -0.00571695  5.61222e-06 0.00155239 -0.00571695  -0.000269295 0.00090361 -0.00571695  -0.00395112 0.000689012 -0.00571695  0.00466256 -0.000690515 -0.00571695  0.000635767 7.68112e-05 -0.00571695  -0.000129024 -2.37273e-05 -0.00571695  -0.000812598 -0.00025884 -0.00571695  -0.00453429 0.000208913 -0.00571695  0.00463157 -0.000771601 -0.00571695  0.000187816 -0.000678564 -0.00571695  -0.000346885 -0.00156731 -0.00571695  -0.000898583 -0.00158636 -0.00571695  -0.00249497 -0.00137854 -0.00571695  0.00468253 -0.00553414 -0.00571695  0.00020002 -0.00413027 -0.00571695  0.000310308 -0.00448851 -0.00571695  -0.000840282 -0.0031722 -0.00571695  -0.000237287 -0.000690578 -0.00571695  
            </DataArray>
         </PointData> 
      </Piece>
   </UnstructuredGrid> 
</VTKFile>
