<?xml version="1.0"?>
<VTKFile type="UnstructuredGrid" version="0.1" byte_order="LittleEndian">
   <UnstructuredGrid>
      <Piece NumberOfPoints="25" NumberOfCells="0" > 
         <Points> 
            <DataArray type="Float64" Name="Position" NumberOfComponents="3" format="ascii"> 
               0  0  20  
               0.75  0  20  
               1.5  0  20  
               2.25  0  20  
               3  0  20  
               0  0.75  20  
               0.75  0.75  20  
               1.5  0.75  20  
               2.25  0.75  20  
               3  0.75  20  
               0  1.5  20  
               0.75  1.5  20  
               1.5  1.5  20  
               2.25  1.5  20  
               3  1.5  20  
               0  2.25  20  
               0.75  2.25  20  
               1.5  2.25  20  
               2.25  2.25  20  
               3  2.25  20  
               0  3  20  
               0.75  3  20  
               1.5  3  20  
               2.25  3  20  
               3  3  20  
            </DataArray>
         </Points> 

         <Cells>
            <DataArray type="Int32" Name="connectivity" NumberOfComponents="1" format="ascii">
               
            </DataArray> 
            <DataArray type="Int32" Name="offsets" NumberOfComponents="1" format="ascii">
               
            </DataArray>
            <DataArray type="UInt8"  Name="types" NumberOfComponents="1" format="ascii">
               
            </DataArray>
         </Cells>
         <PointData Scalars="Rank " Vectors="Displacement Velocity Traction ">
            <DataArray type="UInt32" Name="Rank" NumberOfComponents="1" format="ascii">
               0 0 0 0 0 0 0 0 0 0 0 0 0 0 0 0 0 0 0 0 0 0 0 0 0 
            </DataArray>
            <DataArray type="Float64" Name="Displacement" NumberOfComponents="3" format="ascii">
               0.00113276 0.00112925 -0.00517146  7.45697e-05 0.00189596 -0.00514341  -0.000562 0.00225502 -0.00496137  -0.000544842 0.00163866 -0.00517619  -0.00122462 0.0020114 -0.00520209  0.00188161 6.93744e-05 -0.00513311  0.00058122 0.000590872 -0.00471216  -0.000188103 0.000930542 -0.00436977  -0.00060061 0.000623794 -0.00489243  -0.00158782 0.00103069 -0.00507554  0.00223645 -0.000559887 -0.00494668  0.000917488 -0.000187344 -0.0043682  -8.28164e-06 -4.9826e-06 -0.00372222  -0.000881832 0.000140883 -0.00439549  -0.00218663 0.000561069 -0.00495281  0.00161626 -0.000524269 -0.00516095  0.000610024 -0.000590438 -0.00489148  0.000135947 -0.000870169 -0.00439459  -0.000563243 -0.000549968 -0.0047598  -0.00185271 -0.000124065 -0.00514182  0.00198562 -0.00119464 -0.00516741  0.00101039 -0.00156674 -0.00506139  0.00055551 -0.0021674 -0.00493831  -0.000122116 -0.00183194 -0.00512884  -0.00116885 -0.00116809 -0.00514727  
            </DataArray>
            <DataArray type="Float64" Name="Velocity" NumberOfComponents="3" format="ascii">
               0.00131686 0.00129735 -0.00574189  9.07791e-05 0.00217502 -0.00560593  -0.000524112 0.00264011 -0.00536225  -0.000510192 0.00190342 -0.00562969  -0.00137168 0.00214609 -0.00573465  0.00218886 7.31672e-05 -0.00561118  0.000640054 0.000627731 -0.00500461  -0.00015203 0.000998577 -0.00451717  -0.00059084 0.000641524 -0.00517236  -0.00181934 0.00100867 -0.00552968  0.00264841 -0.000540238 -0.00536063  0.00100765 -0.000165907 -0.00451408  2.58119e-05 1.39484e-05 -0.00365675  -0.000912487 0.000140976 -0.00454687  -0.0025375 0.000559417 -0.00534737  0.00190318 -0.000519573 -0.00562174  0.000646694 -0.000601214 -0.00516681  0.000150684 -0.000920615 -0.0045442  -0.000569289 -0.00057603 -0.00505607  -0.0021013 -0.00011219 -0.0055963  0.00214348 -0.0013725 -0.00572279  0.00101145 -0.00182467 -0.00552364  0.000567626 -0.00254302 -0.00534439  -9.86078e-05 -0.00210437 -0.00559784  -0.00129995 -0.0013152 -0.00569651  
            </DataArray>
            <DataArray type="Float64" Name="Traction" NumberOfComponents="3" format="ascii">
               -0.00658935 -0.00666696 -0.0674412  -0.00140508 -0.0130315 -0.0674412  0.00425051 -0.0153745 -0.0674412  0.00325638 -0.00990307 -0.0674412  0.00618175 -0.0111687 -0.0674412  -0.0128647 -0.00144227 -0.0674412  -0.00514673 -0.00524327 -0.0674412  0.00453362 -0.00824433 -0.0674412  0.00511238 -0.00528894 -0.0674412  0.00896229 -0.00563254 -0.0674412  -0.0151983 0.00425148 -0.0674412  -0.0081561 0.00455476 -0.0674412  0.00372723 0.00375517 -0.0674412  0.00798387 0.00115665 -0.0674412  0.0147441 -0.00100705 -0.0674412  -0.00971192 0.00305786 -0.0674412  -0.0052187 0.00501087 -0.0674412  0.00111621 0.00789585 -0.0674412  0.00509301 0.0050235 -0.0674412  0.0124544 0.0018422 -0.0674412  -0.0109288 0.0058361 -0.0674412  -0.00552924 0.00872919 -0.0674412  -0.00105869 0.0145474 -0.0674412  0.00180661 0.0122812 -0.0674412  0.00680257 0.00676421 -0.0674412  
            </DataArray>
         </PointData> 
      </Piece>
   </UnstructuredGrid> 
</VTKFile>
