<?xml version="1.0"?>
<VTKFile type="UnstructuredGrid" version="0.1" byte_order="LittleEndian">
   <UnstructuredGrid>
      <Piece NumberOfPoints="25" NumberOfCells="0" > 
         <Points> 
            <DataArray type="Float64" Name="Position" NumberOfComponents="3" format="ascii"> 
               0  0  20  
               0.75  0  20  
               1.5  0  20  
               2.25  0  20  
               3  0  20  
               0  0.75  20  
               0.75  0.75  20  
               1.5  0.75  20  
               2.25  0.75  20  
               3  0.75  20  
               0  1.5  20  
               0.75  1.5  20  
               1.5  1.5  20  
               2.25  1.5  20  
               3  1.5  20  
               0  2.25  20  
               0.75  2.25  20  
               1.5  2.25  20  
               2.25  2.25  20  
               3  2.25  20  
               0  3  20  
               0.75  3  20  
               1.5  3  20  
               2.25  3  20  
               3  3  20  
            </DataArray>
         </Points> 

         <Cells>
            <DataArray type="Int32" Name="connectivity" NumberOfComponents="1" format="ascii">
               
            </DataArray> 
            <DataArray type="Int32" Name="offsets" NumberOfComponents="1" format="ascii">
               
            </DataArray>
            <DataArray type="UInt8"  Name="types" NumberOfComponents="1" format="ascii">
               
            </DataArray>
         </Cells>
         <PointData Scalars="Rank " Vectors="Displacement Velocity Traction ">
            <DataArray type="UInt32" Name="Rank" NumberOfComponents="1" format="ascii">
               0 0 0 0 0 0 0 0 0 0 0 0 0 0 0 0 0 0 0 0 0 0 0 0 0 
            </DataArray>
            <DataArray type="Float64" Name="Displacement" NumberOfComponents="3" format="ascii">
               0 0 0  0 0 0  0 0 0  0 0 0  0 0 0  0 0 0  0 0 0  0 0 0  0 0 0  0 0 0  0 0 0  0 0 0  0 0 0  0 0 0  0 0 0  0 0 0  0 0 0  0 0 0  0 0 0  0 0 0  0 0 0  0 0 0  0 0 0  0 0 0  0 0 0  
            </DataArray>
            <DataArray type="Float64" Name="Velocity" NumberOfComponents="3" format="ascii">
               0 0 0  0 0 0  0 0 0  0 0 0  0 0 0  0 0 0  0 0 0  0 0 0  0 0 0  0 0 0  0 0 0  0 0 0  0 0 0  0 0 0  0 0 0  0 0 0  0 0 0  0 0 0  0 0 0  0 0 0  0 0 0  0 0 0  0 0 0  0 0 0  0 0 0  
            </DataArray>
            <DataArray type="Float64" Name="Traction" NumberOfComponents="3" format="ascii">
               -4.97946e-06 -4.8081e-06 -2.76502e-05  -1.40118e-06 -8.85775e-06 -2.76502e-05  2.34632e-06 -1.01244e-05 -2.76502e-05  2.29998e-06 -6.60325e-06 -2.76502e-05  5.0257e-06 -8.1928e-06 -2.76502e-05  -8.89086e-06 -1.18654e-06 -2.76502e-05  -3.58705e-06 -3.53539e-06 -2.76502e-05  2.47004e-06 -5.35352e-06 -2.76502e-05  3.19189e-06 -3.34562e-06 -2.76502e-05  6.11286e-06 -4.00261e-06 -2.76502e-05  -1.0357e-05 2.54245e-06 -2.76502e-05  -5.55522e-06 2.44076e-06 -2.76502e-05  1.94432e-06 1.95965e-06 -2.76502e-05  5.33108e-06 3.79422e-07 -2.76502e-05  1.00981e-05 -1.07711e-06 -2.76502e-05  -6.6408e-06 2.50338e-06 -2.76502e-05  -3.4216e-06 3.15607e-06 -2.76502e-05  3.47717e-07 5.26422e-06 -2.76502e-05  3.27602e-06 3.31457e-06 -2.76502e-05  8.44438e-06 9.62365e-07 -2.76502e-05  -7.8402e-06 5.28133e-06 -2.76502e-05  -3.70929e-06 6.06075e-06 -2.76502e-05  -7.03379e-07 1.0016e-05 -2.76502e-05  1.48403e-06 8.65484e-06 -2.76502e-05  4.90585e-06 4.54011e-06 -2.76502e-05  
            </DataArray>
         </PointData> 
      </Piece>
   </UnstructuredGrid> 
</VTKFile>
