<?xml version="1.0"?>
<VTKFile type="UnstructuredGrid" version="0.1" byte_order="LittleEndian">
   <UnstructuredGrid>
      <Piece NumberOfPoints="25" NumberOfCells="0" > 
         <Points> 
            <DataArray type="Float64" Name="Position" NumberOfComponents="3" format="ascii"> 
               0  0  15  
               0.75  0  15  
               1.5  0  15  
               2.25  0  15  
               3  0  15  
               0  0.75  15  
               0.75  0.75  15  
               1.5  0.75  15  
               2.25  0.75  15  
               3  0.75  15  
               0  1.5  15  
               0.75  1.5  15  
               1.5  1.5  15  
               2.25  1.5  15  
               3  1.5  15  
               0  2.25  15  
               0.75  2.25  15  
               1.5  2.25  15  
               2.25  2.25  15  
               3  2.25  15  
               0  3  15  
               0.75  3  15  
               1.5  3  15  
               2.25  3  15  
               3  3  15  
            </DataArray>
         </Points> 

         <Cells>
            <DataArray type="Int32" Name="connectivity" NumberOfComponents="1" format="ascii">
               
            </DataArray> 
            <DataArray type="Int32" Name="offsets" NumberOfComponents="1" format="ascii">
               
            </DataArray>
            <DataArray type="UInt8"  Name="types" NumberOfComponents="1" format="ascii">
               
            </DataArray>
         </Cells>
         <PointData Scalars="Rank " Vectors="Displacement Velocity Traction ">
            <DataArray type="UInt32" Name="Rank" NumberOfComponents="1" format="ascii">
               0 0 0 0 0 0 0 0 0 0 0 0 0 0 0 0 0 0 0 0 0 0 0 0 0 
            </DataArray>
            <DataArray type="Float64" Name="Displacement" NumberOfComponents="3" format="ascii">
               0.00151494 0.00165613 -0.00229183  0.00140054 0.000157136 -0.00229455  0.00102344 -0.000338894 -0.00221434  0.000597104 -0.000348112 -0.00230848  0.000431853 -0.00120921 -0.00231404  -6.46124e-05 0.00154152 -0.0022849  -7.90999e-05 0.000138961 -0.00211411  -0.00035318 -0.000207508 -0.00197203  -0.000611644 -0.000346179 -0.00219776  -0.000597107 -0.00139362 -0.00226056  -0.000550513 0.00117316 -0.00220471  -0.000418835 -0.000148477 -0.00197233  -0.00059273 -0.000390982 -0.00169805  -0.000759964 -0.000631036 -0.00198171  -0.000625366 -0.0018327 -0.00220937  -0.000587151 0.000753321 -0.00230122  -0.000579317 -0.000418808 -0.00219952  -0.000849154 -0.000564508 -0.00198218  -0.0011249 -0.000920745 -0.00213297  -0.00114198 -0.00219252 -0.00229174  -0.00147606 0.000587526 -0.00229499  -0.00165149 -0.000411365 -0.00225309  -0.00207157 -0.000437978 -0.00220043  -0.00241388 -0.000947491 -0.00228189  -0.00251326 -0.00229874 -0.00228175  
            </DataArray>
            <DataArray type="Float64" Name="Velocity" NumberOfComponents="3" format="ascii">
               0.000471787 0.000626249 -0.00220091  0.000410876 2.55092e-05 -0.00220847  0.000258117 -0.000218523 -0.00214529  9.95302e-05 -0.00020547 -0.0022311  3.02738e-05 -0.000525783 -0.00222364  -0.000125773 0.000564026 -0.0022023  -0.000151388 -2.14737e-06 -0.00205573  -0.000291935 -0.000173837 -0.00193223  -0.000419565 -0.000216397 -0.0021376  -0.000423126 -0.000621355 -0.00218875  -0.000352537 0.000408245 -0.00213537  -0.000306464 -0.000145402 -0.00193079  -0.000379991 -0.000247408 -0.00168545  -0.000458247 -0.000339162 -0.00194388  -0.00041235 -0.0008182 -0.00214505  -0.000345635 0.000246335 -0.00222026  -0.000356545 -0.000272125 -0.00213648  -0.000483544 -0.000320981 -0.00194312  -0.000622216 -0.0004696 -0.00207722  -0.000649661 -0.000983892 -0.00221223  -0.000692527 0.000175264 -0.00219972  -0.000787774 -0.000272898 -0.00217916  -0.000986958 -0.000268622 -0.00213518  -0.00115818 -0.000490671 -0.00220375  -0.00122361 -0.00104553 -0.00219472  
            </DataArray>
            <DataArray type="Float64" Name="Traction" NumberOfComponents="3" format="ascii">
               0 0 0  0 0 0  0 0 0  0 0 0  0 0 0  0 0 0  0 0 0  0 0 0  0 0 0  0 0 0  0 0 0  0 0 0  0 0 0  0 0 0  0 0 0  0 0 0  0 0 0  0 0 0  0 0 0  0 0 0  0 0 0  0 0 0  0 0 0  0 0 0  0 0 0  
            </DataArray>
         </PointData> 
      </Piece>
   </UnstructuredGrid> 
</VTKFile>
