<?xml version="1.0"?>
<VTKFile type="UnstructuredGrid" version="0.1" byte_order="LittleEndian">
   <UnstructuredGrid>
      <Piece NumberOfPoints="25" NumberOfCells="0" > 
         <Points> 
            <DataArray type="Float64" Name="Position" NumberOfComponents="3" format="ascii"> 
               0  0  20  
               0.75  0  20  
               1.5  0  20  
               2.25  0  20  
               3  0  20  
               0  0.75  20  
               0.75  0.75  20  
               1.5  0.75  20  
               2.25  0.75  20  
               3  0.75  20  
               0  1.5  20  
               0.75  1.5  20  
               1.5  1.5  20  
               2.25  1.5  20  
               3  1.5  20  
               0  2.25  20  
               0.75  2.25  20  
               1.5  2.25  20  
               2.25  2.25  20  
               3  2.25  20  
               0  3  20  
               0.75  3  20  
               1.5  3  20  
               2.25  3  20  
               3  3  20  
            </DataArray>
         </Points> 

         <Cells>
            <DataArray type="Int32" Name="connectivity" NumberOfComponents="1" format="ascii">
               
            </DataArray> 
            <DataArray type="Int32" Name="offsets" NumberOfComponents="1" format="ascii">
               
            </DataArray>
            <DataArray type="UInt8"  Name="types" NumberOfComponents="1" format="ascii">
               
            </DataArray>
         </Cells>
         <PointData Scalars="Rank " Vectors="Displacement Velocity Traction ">
            <DataArray type="UInt32" Name="Rank" NumberOfComponents="1" format="ascii">
               0 0 0 0 0 0 0 0 0 0 0 0 0 0 0 0 0 0 0 0 0 0 0 0 0 
            </DataArray>
            <DataArray type="Float64" Name="Displacement" NumberOfComponents="3" format="ascii">
               2.19004e-05 2.10287e-05 -8.49902e-05  -7.99289e-07 3.97422e-05 -7.76998e-05  -1.14195e-05 4.90238e-05 -7.01827e-05  -8.12705e-06 3.34221e-05 -7.51712e-05  -2.57385e-05 3.78643e-05 -8.28172e-05  4.12999e-05 -1.66881e-06 -7.8711e-05  1.22993e-05 1.0702e-05 -6.11641e-05  -1.10426e-06 1.78799e-05 -4.9166e-05  -7.03583e-06 9.04136e-06 -6.22025e-05  -3.11249e-05 1.65811e-05 -7.37972e-05  5.13432e-05 -1.24877e-05 -7.14028e-05  2.00356e-05 -2.0341e-06 -4.92225e-05  3.1163e-06 1.84864e-06 -3.09876e-05  -1.41165e-05 3.37538e-06 -4.96545e-05  -4.58282e-05 1.39397e-05 -7.00279e-05  3.56522e-05 -1.03985e-05 -7.60535e-05  1.11046e-05 -8.14366e-06 -6.19834e-05  4.92955e-06 -1.50137e-05 -4.94965e-05  -7.66921e-06 -8.85959e-06 -6.14276e-05  -3.73739e-05 2.73366e-06 -7.70039e-05  3.93309e-05 -2.85329e-05 -8.47407e-05  1.81553e-05 -3.27915e-05 -7.43868e-05  1.50338e-05 -4.68994e-05 -7.04945e-05  3.50466e-06 -3.84115e-05 -7.76728e-05  -1.96091e-05 -2.05361e-05 -8.34652e-05  
            </DataArray>
            <DataArray type="Float64" Name="Velocity" NumberOfComponents="3" format="ascii">
               3.61997e-05 3.714e-05 -0.000138032  -6.89762e-07 6.31314e-05 -0.000131268  -2.12918e-05 7.32145e-05 -0.000122043  -1.75636e-05 5.16886e-05 -0.000129211  -4.0886e-05 6.51636e-05 -0.00013486  6.33751e-05 4.9584e-07 -0.000132052  2.00078e-05 1.98186e-05 -0.000111421  -5.0294e-06 3.05439e-05 -9.76947e-05  -1.68432e-05 1.85888e-05 -0.000115666  -4.95253e-05 3.23831e-05 -0.000125322  7.45172e-05 -2.04135e-05 -0.00012348  3.15214e-05 -4.33668e-06 -9.79513e-05  1.62913e-06 1.6564e-06 -7.451e-05  -2.58833e-05 4.97859e-06 -9.83023e-05  -6.80687e-05 2.09274e-05 -0.000120189  5.38196e-05 -1.88004e-05 -0.000130746  2.00149e-05 -1.70449e-05 -0.000115671  5.56319e-06 -2.64771e-05 -9.82969e-05  -1.59841e-05 -1.71349e-05 -0.000112298  -5.78882e-05 -1.83553e-07 -0.000128787  6.73396e-05 -4.3191e-05 -0.000138018  3.44225e-05 -5.07346e-05 -0.000126311  2.17336e-05 -6.93697e-05 -0.000121371  -2.18078e-07 -5.9716e-05 -0.000130167  -3.54162e-05 -3.56723e-05 -0.00013411  
            </DataArray>
            <DataArray type="Float64" Name="Traction" NumberOfComponents="3" format="ascii">
               -0.000209877 -0.000195127 -0.00154622  -8.09193e-05 -0.000306381 -0.00154622  4.90687e-05 -0.000389798 -0.00154622  6.30613e-05 -0.000268186 -0.00154622  0.000182493 -0.000247699 -0.00154622  -0.000314298 -7.07524e-05 -0.00154622  -0.000124797 -0.000121718 -0.00154622  9.67375e-05 -0.000204097 -0.00154622  0.000124959 -0.000128866 -0.00154622  0.000251007 -9.7043e-05 -0.00154622  -0.000399771 5.01444e-05 -0.00154622  -0.00020787 9.11594e-05 -0.00154622  8.59288e-05 8.0952e-05 -0.00154622  0.00019711 2.4705e-05 -0.00154622  0.000380081 -1.12817e-06 -0.00154622  -0.00026823 7.61192e-05 -0.00154622  -0.000124321 0.000129856 -0.00154622  3.17585e-05 0.000196745 -0.00154622  0.000123857 0.000124331 -0.00154622  0.000308565 6.60519e-05 -0.00154622  -0.000247576 0.000204816 -0.00154622  -9.27638e-05 0.000267552 -0.00154622  8.52719e-06 0.000388374 -0.00154622  6.86834e-05 0.00031532 -0.00154622  0.000189412 0.000193199 -0.00154622  
            </DataArray>
         </PointData> 
      </Piece>
   </UnstructuredGrid> 
</VTKFile>
