<?xml version="1.0"?>
<VTKFile type="UnstructuredGrid" version="0.1" byte_order="LittleEndian">
   <UnstructuredGrid>
      <Piece NumberOfPoints="25" NumberOfCells="0" > 
         <Points> 
            <DataArray type="Float64" Name="Position" NumberOfComponents="3" format="ascii"> 
               0  0  15  
               0.75  0  15  
               1.5  0  15  
               2.25  0  15  
               3  0  15  
               0  0.75  15  
               0.75  0.75  15  
               1.5  0.75  15  
               2.25  0.75  15  
               3  0.75  15  
               0  1.5  15  
               0.75  1.5  15  
               1.5  1.5  15  
               2.25  1.5  15  
               3  1.5  15  
               0  2.25  15  
               0.75  2.25  15  
               1.5  2.25  15  
               2.25  2.25  15  
               3  2.25  15  
               0  3  15  
               0.75  3  15  
               1.5  3  15  
               2.25  3  15  
               3  3  15  
            </DataArray>
         </Points> 

         <Cells>
            <DataArray type="Int32" Name="connectivity" NumberOfComponents="1" format="ascii">
               
            </DataArray> 
            <DataArray type="Int32" Name="offsets" NumberOfComponents="1" format="ascii">
               
            </DataArray>
            <DataArray type="UInt8"  Name="types" NumberOfComponents="1" format="ascii">
               
            </DataArray>
         </Cells>
         <PointData Scalars="Rank " Vectors="Displacement Velocity Traction ">
            <DataArray type="UInt32" Name="Rank" NumberOfComponents="1" format="ascii">
               0 0 0 0 0 0 0 0 0 0 0 0 0 0 0 0 0 0 0 0 0 0 0 0 0 
            </DataArray>
            <DataArray type="Float64" Name="Displacement" NumberOfComponents="3" format="ascii">
               0.000381391 0.000277138 -6.84927e-05  0.000369052 6.22688e-05 -6.19322e-05  0.000317254 2.4696e-05 -5.55825e-05  0.000256953 -1.25974e-06 -5.97084e-05  0.000236149 -0.000129279 -6.65039e-05  0.000113194 0.000267123 -6.28613e-05  0.000116303 6.45455e-05 -4.79207e-05  0.000101057 3.31527e-05 -3.76324e-05  8.99483e-05 -5.82229e-06 -4.84618e-05  9.79927e-05 -0.00014869 -5.87876e-05  5.18132e-05 0.000222109 -5.66285e-05  6.37386e-05 3.93432e-05 -3.76621e-05  3.69721e-05 -6.83982e-06 -2.2335e-05  1.71991e-05 -4.65244e-05 -3.80535e-05  3.35122e-05 -0.000200792 -5.56471e-05  6.9159e-06 0.000167361 -6.04025e-05  1.1607e-05 1.12528e-05 -4.82461e-05  -5.12103e-06 -4.30663e-05 -3.78907e-05  -1.88115e-05 -8.33611e-05 -4.808e-05  -1.5265e-05 -0.000238266 -6.15498e-05  -9.77343e-05 0.000148131 -6.80594e-05  -0.000110713 6.29544e-06 -5.9276e-05  -0.000144298 -4.43114e-05 -5.59841e-05  -0.000162225 -9.33723e-05 -6.20728e-05  -0.000160824 -0.000243545 -6.74228e-05  
            </DataArray>
            <DataArray type="Float64" Name="Velocity" NumberOfComponents="3" format="ascii">
               0.000227444 0.000226647 -0.000117702  0.000215117 3.92976e-05 -0.000111012  0.000167886 -1.33681e-05 -0.000102761  0.000112253 -2.85617e-05 -0.000108973  9.10937e-05 -0.000145569 -0.000114655  2.76376e-05 0.000213936 -0.000111852  2.82666e-05 3.89951e-05 -9.30649e-05  1.67391e-07 2.53242e-06 -8.07529e-05  -2.63907e-05 -2.69647e-05 -9.64737e-05  -2.35988e-05 -0.000164709 -0.000105715  -3.13431e-05 0.000168385 -0.000104177  -1.50838e-05 7.60998e-06 -8.09726e-05  -3.65815e-05 -2.29764e-05 -6.01901e-05  -5.49e-05 -6.17739e-05 -8.12902e-05  -3.67674e-05 -0.000215582 -0.000101212  -4.78136e-05 0.000114822 -0.000110389  -4.48717e-05 -2.24758e-05 -9.64128e-05  -7.39393e-05 -4.63599e-05 -8.1248e-05  -0.000102109 -9.76904e-05 -9.37668e-05  -0.000100447 -0.000259075 -0.000108851  -0.00015166 9.45444e-05 -0.000117589  -0.000168989 -2.22167e-05 -0.000106626  -0.000213726 -3.34385e-05 -0.000102308  -0.000249324 -0.000101702 -0.000110185  -0.000257512 -0.000271426 -0.000114199  
            </DataArray>
            <DataArray type="Float64" Name="Traction" NumberOfComponents="3" format="ascii">
               0 0 0  0 0 0  0 0 0  0 0 0  0 0 0  0 0 0  0 0 0  0 0 0  0 0 0  0 0 0  0 0 0  0 0 0  0 0 0  0 0 0  0 0 0  0 0 0  0 0 0  0 0 0  0 0 0  0 0 0  0 0 0  0 0 0  0 0 0  0 0 0  0 0 0  
            </DataArray>
         </PointData> 
      </Piece>
   </UnstructuredGrid> 
</VTKFile>
