<?xml version="1.0"?>
<VTKFile type="UnstructuredGrid" version="0.1" byte_order="LittleEndian">
   <UnstructuredGrid>
      <Piece NumberOfPoints="25" NumberOfCells="0" > 
         <Points> 
            <DataArray type="Float64" Name="Position" NumberOfComponents="3" format="ascii"> 
               0  0  20  
               0.75  0  20  
               1.5  0  20  
               2.25  0  20  
               3  0  20  
               0  0.75  20  
               0.75  0.75  20  
               1.5  0.75  20  
               2.25  0.75  20  
               3  0.75  20  
               0  1.5  20  
               0.75  1.5  20  
               1.5  1.5  20  
               2.25  1.5  20  
               3  1.5  20  
               0  2.25  20  
               0.75  2.25  20  
               1.5  2.25  20  
               2.25  2.25  20  
               3  2.25  20  
               0  3  20  
               0.75  3  20  
               1.5  3  20  
               2.25  3  20  
               3  3  20  
            </DataArray>
         </Points> 

         <Cells>
            <DataArray type="Int32" Name="connectivity" NumberOfComponents="1" format="ascii">
               
            </DataArray> 
            <DataArray type="Int32" Name="offsets" NumberOfComponents="1" format="ascii">
               
            </DataArray>
            <DataArray type="UInt8"  Name="types" NumberOfComponents="1" format="ascii">
               
            </DataArray>
         </Cells>
         <PointData Scalars="Rank " Vectors="Displacement Velocity Traction ">
            <DataArray type="UInt32" Name="Rank" NumberOfComponents="1" format="ascii">
               0 0 0 0 0 0 0 0 0 0 0 0 0 0 0 0 0 0 0 0 0 0 0 0 0 
            </DataArray>
            <DataArray type="Float64" Name="Displacement" NumberOfComponents="3" format="ascii">
               0.0196444 0.0196151 -0.0738081  0.000365811 0.0339828 -0.0683351  -0.00391291 0.0452379 -0.0630762  -0.00394481 0.0319402 -0.0692885  -0.0215813 0.0263933 -0.0748851  0.0340167 0.000340919 -0.0683497  0.00698008 0.00695356 -0.0545942  -0.00102254 0.011885 -0.041071  -0.00644073 0.00656028 -0.0550068  -0.0315753 0.00715158 -0.0689172  0.0452626 -0.00394152 -0.06308  0.0119077 -0.00104643 -0.0410661  0.000459599 0.000437508 -0.0193738  -0.0111025 0.000982989 -0.0411809  -0.0445366 0.0041402 -0.0630157  0.0319493 -0.00397263 -0.0692793  0.00657426 -0.00646491 -0.0549961  0.00100042 -0.0111228 -0.0411759  -0.00659035 -0.00660735 -0.0548359  -0.0336008 -0.000684053 -0.068263  0.0264019 -0.021597 -0.0748796  0.00716554 -0.0315964 -0.0689122  0.00415408 -0.0445565 -0.0630168  -0.000666881 -0.0336151 -0.0682699  -0.0196672 -0.0196865 -0.0736115  
            </DataArray>
            <DataArray type="Float64" Name="Velocity" NumberOfComponents="3" format="ascii">
               0.106699 0.106682 -0.388059  0.000812901 0.188286 -0.353077  -0.010902 0.261619 -0.323782  -0.0111972 0.183505 -0.365991  -0.118144 0.130015 -0.402349  0.188344 0.000805298 -0.353106  0.0327809 0.032741 -0.273718  -0.00281423 0.0567732 -0.184833  -0.0302185 0.0300524 -0.27098  -0.182715 0.0196229 -0.365909  0.261675 -0.0109283 -0.323808  0.0568185 -0.00283594 -0.184836  0.00216012 0.00213339 -0.0427321  -0.0541981 0.00295979 -0.184816  -0.259625 0.0119013 -0.323605  0.183556 -0.0112632 -0.366004  0.0300893 -0.0302601 -0.270972  0.00298486 -0.0542356 -0.184814  -0.0317929 -0.0318314 -0.274239  -0.1876 -0.00200998 -0.35293  0.130073 -0.118218 -0.402406  0.0196727 -0.182776 -0.365929  0.0119206 -0.259677 -0.323626  -0.00200961 -0.187648 -0.352949  -0.106784 -0.106785 -0.387935  
            </DataArray>
            <DataArray type="Float64" Name="Traction" NumberOfComponents="3" format="ascii">
               -0.14364 -0.143911 -12.6675  -0.0260747 -0.276258 -12.6675  0.0526779 -0.385483 -12.6675  0.0494937 -0.267185 -12.6675  0.15126 -0.185206 -12.6675  -0.276173 -0.0263206 -12.6675  -0.108015 -0.108167 -12.6675  0.0752385 -0.17792 -12.6675  0.107748 -0.10806 -12.6675  0.261905 -0.069011 -12.6675  -0.385455 0.0523748 -12.6675  -0.177818 0.0749646 -12.6675  0.107748 0.107533 -12.6675  0.174361 0.0625966 -12.6675  0.38149 0.00134611 -12.6675  -0.266943 0.0492895 -12.6675  -0.107904 0.107523 -12.6675  0.0627979 0.174177 -12.6675  0.106782 0.10663 -12.6675  0.272194 0.0295615 -12.6675  -0.184914 0.151245 -12.6675  -0.068894 0.261845 -12.6675  0.00148815 0.381444 -12.6675  0.0296099 0.272211 -12.6675  0.144078 0.144274 -12.6675  
            </DataArray>
         </PointData> 
      </Piece>
   </UnstructuredGrid> 
</VTKFile>
