<?xml version="1.0"?>
<VTKFile type="UnstructuredGrid" version="0.1" byte_order="LittleEndian">
   <UnstructuredGrid>
      <Piece NumberOfPoints="25" NumberOfCells="0" > 
         <Points> 
            <DataArray type="Float64" Name="Position" NumberOfComponents="3" format="ascii"> 
               0  0  20  
               0.75  0  20  
               1.5  0  20  
               2.25  0  20  
               3  0  20  
               0  0.75  20  
               0.75  0.75  20  
               1.5  0.75  20  
               2.25  0.75  20  
               3  0.75  20  
               0  1.5  20  
               0.75  1.5  20  
               1.5  1.5  20  
               2.25  1.5  20  
               3  1.5  20  
               0  2.25  20  
               0.75  2.25  20  
               1.5  2.25  20  
               2.25  2.25  20  
               3  2.25  20  
               0  3  20  
               0.75  3  20  
               1.5  3  20  
               2.25  3  20  
               3  3  20  
            </DataArray>
         </Points> 

         <Cells>
            <DataArray type="Int32" Name="connectivity" NumberOfComponents="1" format="ascii">
               
            </DataArray> 
            <DataArray type="Int32" Name="offsets" NumberOfComponents="1" format="ascii">
               
            </DataArray>
            <DataArray type="UInt8"  Name="types" NumberOfComponents="1" format="ascii">
               
            </DataArray>
         </Cells>
         <PointData Scalars="Rank " Vectors="Displacement Velocity Traction ">
            <DataArray type="UInt32" Name="Rank" NumberOfComponents="1" format="ascii">
               0 0 0 0 0 0 0 0 0 0 0 0 0 0 0 0 0 0 0 0 0 0 0 0 0 
            </DataArray>
            <DataArray type="Float64" Name="Displacement" NumberOfComponents="3" format="ascii">
               0.000226054 0.000233859 -0.00101948  1.93198e-06 0.000399833 -0.0010113  -0.000140813 0.000471841 -0.000966391  -0.00012643 0.000338334 -0.00101134  -0.000262255 0.000437198 -0.00102352  0.000391417 8.96098e-06 -0.00100782  0.00012018 0.000127306 -0.000914678  -4.86478e-05 0.000202022 -0.000841312  -0.000132824 0.000132559 -0.000950246  -0.000335297 0.000229461 -0.000988328  0.000465017 -0.000132986 -0.000964535  0.000195898 -4.19918e-05 -0.000842144  -5.67329e-06 3.02939e-07 -0.000707039  -0.000191652 3.23713e-05 -0.000845139  -0.000457251 0.000129967 -0.000961525  0.000334002 -0.000118658 -0.00101133  0.000127862 -0.000126089 -0.000951739  2.70829e-05 -0.000185754 -0.000845683  -0.000122573 -0.000117055 -0.00092218  -0.000388629 -1.97644e-05 -0.00100639  0.000433018 -0.000255785 -0.00102147  0.000224863 -0.000328324 -0.000987426  0.000125483 -0.000451093 -0.000959909  -2.55315e-05 -0.000383579 -0.00100383  -0.000245518 -0.000238782 -0.0010116  
            </DataArray>
            <DataArray type="Float64" Name="Velocity" NumberOfComponents="3" format="ascii">
               0.000212464 0.000216551 -0.00101628  1.0732e-05 0.000365221 -0.0010284  -0.000126462 0.000430011 -0.000998461  -0.000123353 0.000314863 -0.00103767  -0.000243298 0.000410438 -0.00103333  0.000354598 1.33997e-05 -0.00102168  0.000110437 0.000118793 -0.000960014  -4.88928e-05 0.000187619 -0.000905014  -0.000133501 0.000130225 -0.000999177  -0.000313564 0.000221584 -0.0010173  0.000418225 -0.00012112 -0.000991414  0.000178146 -4.46681e-05 -0.000905024  -1.06903e-05 -5.49347e-06 -0.00079302  -0.00018709 2.88279e-05 -0.000909123  -0.000424832 0.000116126 -0.000998342  0.000303214 -0.000110366 -0.00103213  0.00012121 -0.000125724 -0.00100037  2.29272e-05 -0.000179217 -0.000909527  -0.000122164 -0.000113423 -0.000968931  -0.000364874 -2.99636e-05 -0.00103041  0.000398436 -0.000227808 -0.00101921  0.000210298 -0.000301821 -0.00101215  0.000110297 -0.000414024 -0.000992211  -3.36215e-05 -0.000353694 -0.0010233  -0.000235181 -0.000229581 -0.00101725  
            </DataArray>
            <DataArray type="Float64" Name="Traction" NumberOfComponents="3" format="ascii">
               -0.00157431 -0.00156098 -0.0123926  -0.000489607 -0.00281569 -0.0123926  0.000799564 -0.00326388 -0.0123926  0.000618291 -0.00212322 -0.0123926  0.00124632 -0.0024823 -0.0123926  -0.00281384 -0.000446202 -0.0123926  -0.00119166 -0.00116491 -0.0123926  0.000920101 -0.00181498 -0.0123926  0.00105782 -0.00119453 -0.0123926  0.00183919 -0.00125814 -0.0123926  -0.00327768 0.000859231 -0.0123926  -0.00184931 0.00096846 -0.0123926  0.000692752 0.000742305 -0.0123926  0.00164182 0.000185156 -0.0123926  0.00301318 -0.000183804 -0.0123926  -0.00214784 0.000656414 -0.0123926  -0.00123045 0.00109275 -0.0123926  0.000137092 0.0016786 -0.0123926  0.0010374 0.0010726 -0.0123926  0.00257369 0.000477827 -0.0123926  -0.00250889 0.00127195 -0.0123926  -0.0012928 0.00185913 -0.0123926  -0.000237013 0.00303695 -0.0123926  0.000445445 0.00259894 -0.0123926  0.00149869 0.00150971 -0.0123926  
            </DataArray>
         </PointData> 
      </Piece>
   </UnstructuredGrid> 
</VTKFile>
