<?xml version="1.0"?>
<VTKFile type="UnstructuredGrid" version="0.1" byte_order="LittleEndian">
   <UnstructuredGrid>
      <Piece NumberOfPoints="25" NumberOfCells="0" > 
         <Points> 
            <DataArray type="Float64" Name="Position" NumberOfComponents="3" format="ascii"> 
               0  0  20  
               0.75  0  20  
               1.5  0  20  
               2.25  0  20  
               3  0  20  
               0  0.75  20  
               0.75  0.75  20  
               1.5  0.75  20  
               2.25  0.75  20  
               3  0.75  20  
               0  1.5  20  
               0.75  1.5  20  
               1.5  1.5  20  
               2.25  1.5  20  
               3  1.5  20  
               0  2.25  20  
               0.75  2.25  20  
               1.5  2.25  20  
               2.25  2.25  20  
               3  2.25  20  
               0  3  20  
               0.75  3  20  
               1.5  3  20  
               2.25  3  20  
               3  3  20  
            </DataArray>
         </Points> 

         <Cells>
            <DataArray type="Int32" Name="connectivity" NumberOfComponents="1" format="ascii">
               
            </DataArray> 
            <DataArray type="Int32" Name="offsets" NumberOfComponents="1" format="ascii">
               
            </DataArray>
            <DataArray type="UInt8"  Name="types" NumberOfComponents="1" format="ascii">
               
            </DataArray>
         </Cells>
         <PointData Scalars="Rank " Vectors="Displacement Velocity Traction ">
            <DataArray type="UInt32" Name="Rank" NumberOfComponents="1" format="ascii">
               0 0 0 0 0 0 0 0 0 0 0 0 0 0 0 0 0 0 0 0 0 0 0 0 0 
            </DataArray>
            <DataArray type="Float64" Name="Displacement" NumberOfComponents="3" format="ascii">
               0 0 0  0 0 0  0 0 0  0 0 0  0 0 0  0 0 0  0 0 0  0 0 0  0 0 0  0 0 0  0 0 0  0 0 0  0 0 0  0 0 0  0 0 0  0 0 0  0 0 0  0 0 0  0 0 0  0 0 0  0 0 0  0 0 0  0 0 0  0 0 0  0 0 0  
            </DataArray>
            <DataArray type="Float64" Name="Velocity" NumberOfComponents="3" format="ascii">
               0 0 0  0 0 0  0 0 0  0 0 0  0 0 0  0 0 0  0 0 0  0 0 0  0 0 0  0 0 0  0 0 0  0 0 0  0 0 0  0 0 0  0 0 0  0 0 0  0 0 0  0 0 0  0 0 0  0 0 0  0 0 0  0 0 0  0 0 0  0 0 0  0 0 0  
            </DataArray>
            <DataArray type="Float64" Name="Traction" NumberOfComponents="3" format="ascii">
               -0.00651293 -0.0065901 -0.0812336  -0.00139211 -0.0128778 -0.0812336  0.00420338 -0.015187 -0.0812336  0.00321918 -0.00978118 -0.0812336  0.00610417 -0.011045 -0.0812336  -0.0127115 -0.00142817 -0.0812336  -0.00508697 -0.00518249 -0.0812336  0.00448246 -0.00814834 -0.0812336  0.00505293 -0.00522944 -0.0812336  0.00884866 -0.00557371 -0.0812336  -0.0150116 0.0042059 -0.0812336  -0.00806113 0.0045048 -0.0812336  0.00367901 0.00370801 -0.0812336  0.00788929 0.00113766 -0.0812336  0.0145622 -0.000997561 -0.0812336  -0.00959147 0.00302244 -0.0812336  -0.00516035 0.00495274 -0.0812336  0.00109618 0.00780247 -0.0812336  0.00503249 0.00496404 -0.0812336  0.0123059 0.00182335 -0.0812336  -0.0108068 0.00576066 -0.0812336  -0.00547166 0.00861708 -0.0812336  -0.00105034 0.0143668 -0.0812336  0.00178719 0.0121337 -0.0812336  0.00672376 0.00668559 -0.0812336  
            </DataArray>
         </PointData> 
      </Piece>
   </UnstructuredGrid> 
</VTKFile>
