<?xml version="1.0"?>
<VTKFile type="UnstructuredGrid" version="0.1" byte_order="LittleEndian">
   <UnstructuredGrid>
      <Piece NumberOfPoints="25" NumberOfCells="0" > 
         <Points> 
            <DataArray type="Float64" Name="Position" NumberOfComponents="3" format="ascii"> 
               0  0  15  
               0.75  0  15  
               1.5  0  15  
               2.25  0  15  
               3  0  15  
               0  0.75  15  
               0.75  0.75  15  
               1.5  0.75  15  
               2.25  0.75  15  
               3  0.75  15  
               0  1.5  15  
               0.75  1.5  15  
               1.5  1.5  15  
               2.25  1.5  15  
               3  1.5  15  
               0  2.25  15  
               0.75  2.25  15  
               1.5  2.25  15  
               2.25  2.25  15  
               3  2.25  15  
               0  3  15  
               0.75  3  15  
               1.5  3  15  
               2.25  3  15  
               3  3  15  
            </DataArray>
         </Points> 

         <Cells>
            <DataArray type="Int32" Name="connectivity" NumberOfComponents="1" format="ascii">
               
            </DataArray> 
            <DataArray type="Int32" Name="offsets" NumberOfComponents="1" format="ascii">
               
            </DataArray>
            <DataArray type="UInt8"  Name="types" NumberOfComponents="1" format="ascii">
               
            </DataArray>
         </Cells>
         <PointData Scalars="Rank " Vectors="Displacement Velocity Traction ">
            <DataArray type="UInt32" Name="Rank" NumberOfComponents="1" format="ascii">
               0 0 0 0 0 0 0 0 0 0 0 0 0 0 0 0 0 0 0 0 0 0 0 0 0 
            </DataArray>
            <DataArray type="Float64" Name="Displacement" NumberOfComponents="3" format="ascii">
               6.44956e-06 4.30986e-06 -3.71013e-06  6.3525e-06 -1.93068e-07 -3.67583e-06  5.51178e-06 -9.53845e-07 -3.51455e-06  4.61501e-06 2.70999e-07 -3.6453e-06  4.3952e-06 1.78818e-07 -3.70557e-06  3.43824e-07 3.91543e-06 -3.67551e-06  4.87615e-07 -1.37883e-07 -3.34023e-06  3.20245e-07 -6.78668e-07 -3.15256e-06  -6.93658e-09 4.24408e-07 -3.48588e-06  -7.02161e-08 -1.87016e-07 -3.53461e-06  1.29525e-06 3.20056e-06 -3.50974e-06  1.05048e-06 3.07666e-08 -3.15295e-06  -1.66845e-07 -8.44695e-07 -2.78167e-06  -1.53613e-06 7.18905e-07 -3.17456e-06  -2.18116e-06 -6.80217e-07 -3.4918e-06  1.16273e-06 2.58367e-06 -3.63493e-06  1.06201e-06 2.19977e-07 -3.4868e-06  8.74836e-07 -1.30144e-06 -3.17098e-06  8.5039e-07 8.63835e-07 -3.37281e-06  6.39401e-07 -2.69119e-07 -3.6588e-06  -2.81879e-06 2.26481e-06 -3.70005e-06  -3.14344e-06 3.71242e-07 -3.54362e-06  -4.17422e-06 -1.40115e-06 -3.50061e-06  -4.3205e-06 5.8976e-07 -3.66846e-06  -3.81908e-06 5.93739e-08 -3.69191e-06  
            </DataArray>
            <DataArray type="Float64" Name="Velocity" NumberOfComponents="3" format="ascii">
               8.90562e-06 3.2907e-06 -2.04579e-06  8.90395e-06 -2.05481e-07 -2.34553e-06  7.87915e-06 -1.18547e-06 -2.4989e-06  6.72224e-06 6.84683e-07 -2.45902e-06  6.48355e-06 1.18632e-06 -2.0104e-06  1.29543e-06 3.07327e-06 -2.33856e-06  1.41072e-06 -5.04317e-08 -2.6563e-06  1.18291e-06 -7.90353e-07 -2.93359e-06  6.75632e-07 8.27076e-07 -2.86551e-06  5.91333e-07 7.61287e-07 -2.2831e-06  1.98263e-06 2.9096e-06 -2.48775e-06  1.5755e-06 1.42593e-07 -2.93597e-06  2.39918e-07 -1.02743e-06 -3.16331e-06  -1.29779e-06 9.74229e-07 -2.95562e-06  -1.98995e-06 1.93133e-07 -2.43807e-06  1.97219e-06 2.63393e-06 -2.43997e-06  1.78621e-06 2.46822e-07 -2.86598e-06  1.50339e-06 -1.50341e-06 -2.95039e-06  1.51224e-06 1.11644e-06 -2.69698e-06  1.29439e-06 8.65156e-07 -2.31771e-06  -2.65099e-06 2.4243e-06 -2.00447e-06  -2.84442e-06 3.0719e-07 -2.30012e-06  -3.42839e-06 -1.81752e-06 -2.45358e-06  -2.83896e-06 7.53864e-07 -2.33223e-06  -2.04603e-06 1.51433e-06 -1.99254e-06  
            </DataArray>
            <DataArray type="Float64" Name="Traction" NumberOfComponents="3" format="ascii">
               0.000156068 0.00015901 -7.79812e-05  -6.41368e-05 9.52566e-05 -7.79812e-05  -2.67411e-05 -1.46146e-07 -7.79812e-05  1.81839e-05 8.5791e-05 -7.79812e-05  -0.00017543 0.000197609 -7.79812e-05  0.000159314 -5.16508e-05 -7.79812e-05  1.34667e-05 -9.41799e-06 -7.79812e-05  1.64286e-06 8.54964e-06 -7.79812e-05  9.41722e-06 5.94426e-06 -7.79812e-05  -0.00021156 2.08722e-05 -7.79812e-05  0.000158284 -1.20028e-05 -7.79812e-05  2.97597e-05 -2.6999e-06 -7.79812e-05  5.4711e-06 6.1208e-07 -7.79812e-05  2.21635e-05 6.3919e-06 -7.79812e-05  -0.000245907 8.00255e-06 -7.79812e-05  0.000181098 2.41371e-05 -7.79812e-05  1.63502e-05 1.30927e-05 -7.79812e-05  1.06864e-05 5.70228e-06 -7.79812e-05  1.79287e-05 1.03433e-05 -7.79812e-05  -9.38373e-05 -1.8288e-05 -7.79812e-05  0.000199453 -0.000166212 -7.79812e-05  1.31018e-05 -0.000154307 -7.79812e-05  2.20227e-05 -0.000129534 -7.79812e-05  2.28171e-05 -1.17945e-05 -7.79812e-05  8.37544e-05 5.08878e-05 -7.79812e-05  
            </DataArray>
         </PointData> 
      </Piece>
   </UnstructuredGrid> 
</VTKFile>
