<?xml version="1.0"?>
<VTKFile type="UnstructuredGrid" version="0.1" byte_order="LittleEndian">
   <UnstructuredGrid>
      <Piece NumberOfPoints="25" NumberOfCells="0" > 
         <Points> 
            <DataArray type="Float64" Name="Position" NumberOfComponents="3" format="ascii"> 
               0  0  15  
               0.75  0  15  
               1.5  0  15  
               2.25  0  15  
               3  0  15  
               0  0.75  15  
               0.75  0.75  15  
               1.5  0.75  15  
               2.25  0.75  15  
               3  0.75  15  
               0  1.5  15  
               0.75  1.5  15  
               1.5  1.5  15  
               2.25  1.5  15  
               3  1.5  15  
               0  2.25  15  
               0.75  2.25  15  
               1.5  2.25  15  
               2.25  2.25  15  
               3  2.25  15  
               0  3  15  
               0.75  3  15  
               1.5  3  15  
               2.25  3  15  
               3  3  15  
            </DataArray>
         </Points> 

         <Cells>
            <DataArray type="Int32" Name="connectivity" NumberOfComponents="1" format="ascii">
               
            </DataArray> 
            <DataArray type="Int32" Name="offsets" NumberOfComponents="1" format="ascii">
               
            </DataArray>
            <DataArray type="UInt8"  Name="types" NumberOfComponents="1" format="ascii">
               
            </DataArray>
         </Cells>
         <PointData Scalars="Rank " Vectors="Displacement Velocity Traction ">
            <DataArray type="UInt32" Name="Rank" NumberOfComponents="1" format="ascii">
               0 0 0 0 0 0 0 0 0 0 0 0 0 0 0 0 0 0 0 0 0 0 0 0 0 
            </DataArray>
            <DataArray type="Float64" Name="Displacement" NumberOfComponents="3" format="ascii">
               3.00553e-06 2.67045e-06 -2.52474e-06  2.92983e-06 -1.32087e-07 -2.4082e-06  2.52075e-06 -3.98744e-07 -2.2326e-06  2.09079e-06 7.70353e-08 -2.35756e-06  1.97278e-06 -1.60958e-07 -2.53256e-06  -2.29892e-08 2.41011e-06 -2.40902e-06  6.21495e-08 -1.27284e-07 -2.03761e-06  1.70513e-09 -2.99787e-07 -1.79427e-06  -1.04617e-07 1.51909e-07 -2.09938e-06  -1.21995e-07 -3.54705e-07 -2.3164e-06  6.04556e-07 1.86294e-06 -2.23139e-06  4.91965e-07 -2.17973e-08 -1.79417e-06  -1.73038e-07 -4.01428e-07 -1.40625e-06  -8.90144e-07 3.40035e-07 -1.80617e-06  -1.23371e-06 -6.26961e-07 -2.23017e-06  4.61916e-07 1.42791e-06 -2.35407e-06  4.26427e-07 1.16668e-07 -2.09997e-06  3.66159e-07 -6.82687e-07 -1.80491e-06  3.65206e-07 4.09749e-07 -2.05273e-06  2.53578e-07 -4.78593e-07 -2.40205e-06  -1.54059e-06 1.22354e-06 -2.52988e-06  -1.7544e-06 2.19739e-07 -2.31933e-06  -2.45002e-06 -7.02529e-07 -2.23338e-06  -2.72947e-06 2.71126e-07 -2.40574e-06  -2.52564e-06 -3.82416e-07 -2.52401e-06  
            </DataArray>
            <DataArray type="Float64" Name="Velocity" NumberOfComponents="3" format="ascii">
               5.04046e-06 3.15647e-06 -2.50742e-06  4.97133e-06 -7.39314e-08 -2.55184e-06  4.29361e-06 -9.25034e-07 -2.47506e-06  3.58847e-06 1.72461e-07 -2.53139e-06  3.42381e-06 2.37641e-07 -2.49951e-06  2.99085e-07 2.86665e-06 -2.55241e-06  4.13349e-07 -2.11966e-08 -2.41704e-06  2.39544e-07 -6.46473e-07 -2.38076e-06  -9.83055e-08 3.18121e-07 -2.54169e-06  -1.77578e-07 -3.01512e-08 -2.43306e-06  9.06826e-07 2.39888e-06 -2.47114e-06  7.57824e-07 6.01954e-08 -2.38084e-06  -1.2286e-07 -7.08631e-07 -2.24468e-06  -1.1698e-06 5.53274e-07 -2.39833e-06  -1.66406e-06 -3.64346e-07 -2.45375e-06  9.1843e-07 1.97097e-06 -2.52259e-06  8.38844e-07 1.6201e-07 -2.54249e-06  6.37155e-07 -9.70943e-07 -2.39486e-06  5.69187e-07 6.88911e-07 -2.44474e-06  4.01247e-07 9.90865e-09 -2.53647e-06  -2.28005e-06 1.73785e-06 -2.49453e-06  -2.51327e-06 2.77857e-07 -2.44062e-06  -3.22557e-06 -1.01619e-06 -2.46096e-06  -3.23727e-06 4.96899e-07 -2.54502e-06  -2.8279e-06 3.03294e-07 -2.49168e-06  
            </DataArray>
            <DataArray type="Float64" Name="Traction" NumberOfComponents="3" format="ascii">
               0 0 0  0 0 0  0 0 0  0 0 0  0 0 0  0 0 0  0 0 0  0 0 0  0 0 0  0 0 0  0 0 0  0 0 0  0 0 0  0 0 0  0 0 0  0 0 0  0 0 0  0 0 0  0 0 0  0 0 0  0 0 0  0 0 0  0 0 0  0 0 0  0 0 0  
            </DataArray>
         </PointData> 
      </Piece>
   </UnstructuredGrid> 
</VTKFile>
