<?xml version="1.0"?>
<VTKFile type="UnstructuredGrid" version="0.1" byte_order="LittleEndian">
   <UnstructuredGrid>
      <Piece NumberOfPoints="25" NumberOfCells="0" > 
         <Points> 
            <DataArray type="Float64" Name="Position" NumberOfComponents="3" format="ascii"> 
               0  0  20  
               0.75  0  20  
               1.5  0  20  
               2.25  0  20  
               3  0  20  
               0  0.75  20  
               0.75  0.75  20  
               1.5  0.75  20  
               2.25  0.75  20  
               3  0.75  20  
               0  1.5  20  
               0.75  1.5  20  
               1.5  1.5  20  
               2.25  1.5  20  
               3  1.5  20  
               0  2.25  20  
               0.75  2.25  20  
               1.5  2.25  20  
               2.25  2.25  20  
               3  2.25  20  
               0  3  20  
               0.75  3  20  
               1.5  3  20  
               2.25  3  20  
               3  3  20  
            </DataArray>
         </Points> 

         <Cells>
            <DataArray type="Int32" Name="connectivity" NumberOfComponents="1" format="ascii">
               
            </DataArray> 
            <DataArray type="Int32" Name="offsets" NumberOfComponents="1" format="ascii">
               
            </DataArray>
            <DataArray type="UInt8"  Name="types" NumberOfComponents="1" format="ascii">
               
            </DataArray>
         </Cells>
         <PointData Scalars="Rank " Vectors="Displacement Velocity Traction ">
            <DataArray type="UInt32" Name="Rank" NumberOfComponents="1" format="ascii">
               0 0 0 0 0 0 0 0 0 0 0 0 0 0 0 0 0 0 0 0 0 0 0 0 0 
            </DataArray>
            <DataArray type="Float64" Name="Displacement" NumberOfComponents="3" format="ascii">
               -5.19291e-08 5.49079e-08 -2.51496e-06  4.90751e-07 -4.45193e-07 -3.43372e-06  5.68861e-08 -7.8302e-07 -3.97301e-06  -3.15986e-08 -2.60867e-07 -3.8808e-06  6.54592e-07 3.1927e-07 -2.5372e-06  -6.71148e-07 5.56e-07 -3.3654e-06  1.13626e-07 2.2095e-07 -4.61148e-06  -3.49405e-07 1.10669e-07 -5.3467e-06  -4.50991e-07 4.58647e-07 -5.04184e-06  4.70164e-07 5.85278e-07 -3.59095e-06  -9.40969e-07 1.66325e-07 -3.91152e-06  2.88555e-08 -2.62861e-07 -5.3585e-06  -2.52083e-07 -1.98697e-07 -6.0778e-06  -3.21333e-07 1.13307e-07 -5.3868e-06  8.02326e-07 -9.99629e-08 -3.87329e-06  -3.75839e-07 4.31924e-09 -3.81633e-06  3.75161e-07 -4.06908e-07 -5.04711e-06  7.41314e-08 -2.66004e-07 -5.39314e-06  -2.84158e-07 -2.10212e-07 -4.67618e-06  4.52963e-07 -5.18621e-07 -3.41503e-06  1.72343e-07 6.47045e-07 -2.49712e-06  4.69802e-07 4.892e-07 -3.61739e-06  -1.74096e-07 8.22057e-07 -3.89174e-06  -6.572e-07 4.92078e-07 -3.39561e-06  -2.32924e-07 -8.13496e-08 -2.50769e-06  
            </DataArray>
            <DataArray type="Float64" Name="Velocity" NumberOfComponents="3" format="ascii">
               -1.95417e-06 -1.9257e-06 4.28453e-06  5.0405e-07 -3.46311e-06 3.53797e-06  1.68622e-06 -3.70615e-06 2.94668e-06  1.49471e-06 -2.65815e-06 3.12055e-06  2.95299e-06 -3.58701e-06 4.20047e-06  -3.64685e-06 5.2543e-07 3.6265e-06  -1.09311e-06 -9.9509e-07 2.09667e-06  1.22167e-07 -1.59119e-06 1.44291e-06  8.20749e-07 -9.6859e-07 2.09908e-06  2.60845e-06 -1.81507e-06 3.01804e-06  -3.84829e-06 1.76636e-06 3.02892e-06  -1.69406e-06 1.79778e-07 1.43891e-06  -2.36394e-07 -1.41336e-07 4.25608e-07  1.19724e-06 -2.46569e-07 1.45227e-06  3.36865e-06 -1.61456e-06 2.88882e-06  -2.77031e-06 1.55131e-06 3.18385e-06  -1.08027e-06 8.97604e-07 2.08934e-06  -3.73729e-07 1.34498e-06 1.42673e-06  7.31362e-07 9.31049e-07 2.12681e-06  3.12536e-06 -4.35628e-07 3.43327e-06  -3.76967e-06 2.99583e-06 4.28681e-06  -2.02366e-06 2.71778e-06 3.0417e-06  -1.80681e-06 3.56276e-06 2.93599e-06  -6.44147e-07 3.37402e-06 3.54117e-06  1.6639e-06 1.91859e-06 4.09819e-06  
            </DataArray>
            <DataArray type="Float64" Name="Traction" NumberOfComponents="3" format="ascii">
               8.55033e-07 1.9469e-06 3.90391e-05  -4.10653e-06 9.68841e-06 3.90391e-05  -1.50924e-06 1.23063e-05 3.90391e-05  -5.9685e-06 9.13361e-06 3.90391e-05  -1.58315e-05 7.11846e-06 3.90391e-05  1.09869e-05 -2.13369e-06 3.90391e-05  3.77348e-06 3.59024e-06 3.90391e-05  2.6641e-06 3.95012e-06 3.90391e-05  -2.48921e-06 1.12957e-06 3.90391e-05  -1.34873e-05 2.03731e-06 3.90391e-05  1.19928e-05 -3.07634e-07 3.90391e-05  3.2175e-06 2.56953e-06 3.90391e-05  -7.4244e-07 -1.14861e-07 3.90391e-05  -3.22862e-06 -2.48309e-06 3.90391e-05  -1.31554e-05 1.88094e-06 3.90391e-05  9.15691e-06 -4.98038e-06 3.90391e-05  6.25412e-07 -2.16043e-06 3.90391e-05  -3.80237e-06 -2.89444e-06 3.90391e-05  -4.76688e-06 -3.4117e-06 3.90391e-05  -1.15054e-05 1.39963e-06 3.90391e-05  7.85395e-06 -1.45686e-05 3.90391e-05  2.00412e-06 -1.26516e-05 3.90391e-05  9.11015e-07 -1.24884e-05 3.90391e-05  8.33205e-07 -9.76753e-06 3.90391e-05  -4.4156e-06 -3.96797e-06 3.90391e-05  
            </DataArray>
         </PointData> 
      </Piece>
   </UnstructuredGrid> 
</VTKFile>
