<?xml version="1.0"?>
<VTKFile type="UnstructuredGrid" version="0.1" byte_order="LittleEndian">
   <UnstructuredGrid>
      <Piece NumberOfPoints="25" NumberOfCells="0" > 
         <Points> 
            <DataArray type="Float64" Name="Position" NumberOfComponents="3" format="ascii"> 
               0  0  20  
               0.75  0  20  
               1.5  0  20  
               2.25  0  20  
               3  0  20  
               0  0.75  20  
               0.75  0.75  20  
               1.5  0.75  20  
               2.25  0.75  20  
               3  0.75  20  
               0  1.5  20  
               0.75  1.5  20  
               1.5  1.5  20  
               2.25  1.5  20  
               3  1.5  20  
               0  2.25  20  
               0.75  2.25  20  
               1.5  2.25  20  
               2.25  2.25  20  
               3  2.25  20  
               0  3  20  
               0.75  3  20  
               1.5  3  20  
               2.25  3  20  
               3  3  20  
            </DataArray>
         </Points> 

         <Cells>
            <DataArray type="Int32" Name="connectivity" NumberOfComponents="1" format="ascii">
               
            </DataArray> 
            <DataArray type="Int32" Name="offsets" NumberOfComponents="1" format="ascii">
               
            </DataArray>
            <DataArray type="UInt8"  Name="types" NumberOfComponents="1" format="ascii">
               
            </DataArray>
         </Cells>
         <PointData Scalars="Rank " Vectors="Displacement Velocity Traction ">
            <DataArray type="UInt32" Name="Rank" NumberOfComponents="1" format="ascii">
               0 0 0 0 0 0 0 0 0 0 0 0 0 0 0 0 0 0 0 0 0 0 0 0 0 
            </DataArray>
            <DataArray type="Float64" Name="Displacement" NumberOfComponents="3" format="ascii">
               5.93437e-05 6.02036e-05 -0.000239156  -1.3313e-06 0.000105938 -0.000227346  -3.47058e-05 0.000126137 -0.000211014  -2.78655e-05 8.80862e-05 -0.000223588  -6.83467e-05 0.000108342 -0.000234866  0.000106706 -3.32067e-07 -0.000228542  3.26806e-05 3.18897e-05 -0.000192319  -8.14373e-06 5.08586e-05 -0.000167053  -2.71099e-05 2.99038e-05 -0.000198581  -8.46204e-05 5.28062e-05 -0.00021798  0.000128422 -3.4099e-05 -0.000213009  5.27535e-05 -7.64024e-06 -0.000167374  3.17483e-06 2.86876e-06 -0.000125743  -4.35559e-05 8.69498e-06 -0.000168126  -0.000118624 3.54784e-05 -0.000208998  9.11875e-05 -3.00385e-05 -0.000225578  3.21831e-05 -2.75404e-05 -0.000198573  9.73483e-06 -4.41823e-05 -0.000168062  -2.6288e-05 -2.75827e-05 -0.000193627  -9.92193e-05 8.27223e-07 -0.000224396  0.000110937 -7.19512e-05 -0.000238951  5.52836e-05 -8.63206e-05 -0.000219261  3.64515e-05 -0.000119983 -0.000210246  6.67995e-07 -0.000101086 -0.000225846  -5.86412e-05 -5.87725e-05 -0.000234303  
            </DataArray>
            <DataArray type="Float64" Name="Velocity" NumberOfComponents="3" format="ascii">
               7.00837e-05 7.40546e-05 -0.000304677  -7.51364e-07 0.000125097 -0.000299758  -4.5251e-05 0.000146371 -0.000284373  -3.92116e-05 0.000104187 -0.000298696  -8.06934e-05 0.000136112 -0.000302894  0.000122301 3.24498e-06 -0.000299181  3.76734e-05 4.03868e-05 -0.000267872  -1.55136e-05 6.34486e-05 -0.00024429  -4.10747e-05 4.11665e-05 -0.000278678  -0.000103405 7.14117e-05 -0.000290677  0.000144489 -4.14088e-05 -0.000284735  6.13704e-05 -1.21595e-05 -0.000244756  -1.92816e-06 8.75408e-07 -0.00020208  -5.87466e-05 1.0178e-05 -0.000245335  -0.000139959 4.04165e-05 -0.000281267  0.000103901 -3.71636e-05 -0.000299917  3.99223e-05 -3.87105e-05 -0.000279313  7.90967e-06 -5.7077e-05 -0.000245618  -3.76316e-05 -3.63532e-05 -0.00027001  -0.000118875 -5.66216e-06 -0.000296302  0.000136472 -7.99275e-05 -0.00030498  7.12979e-05 -0.000101797 -0.000291361  3.89662e-05 -0.000138967 -0.000281938  -8.38277e-06 -0.000118771 -0.000296681  -7.61986e-05 -7.34474e-05 -0.00029985  
            </DataArray>
            <DataArray type="Float64" Name="Traction" NumberOfComponents="3" format="ascii">
               -0.000500466 -0.000473075 -0.00347768  -0.000177852 -0.000785478 -0.00347768  0.000170757 -0.000937291 -0.00347768  0.000157952 -0.000628409 -0.00347768  0.000391905 -0.000663807 -0.00347768  -0.000808229 -0.000153581 -0.00347768  -0.000338897 -0.000320603 -0.00347768  0.000241558 -0.000509006 -0.00347768  0.000294558 -0.000330246 -0.00347768  0.000554705 -0.00030423 -0.00347768  -0.000967246 0.00018463 -0.00347768  -0.000529924 0.000245051 -0.00347768  0.000195614 0.000200747 -0.00347768  0.000459484 5.44379e-05 -0.00347768  0.00086688 -3.01306e-05 -0.00347768  -0.000652003 0.000195929 -0.00347768  -0.000341452 0.00031533 -0.00347768  5.36374e-05 0.000475986 -0.00347768  0.00029045 0.000306229 -0.00347768  0.000725994 0.000149337 -0.00347768  -0.00068927 0.000447786 -0.00347768  -0.00031653 0.000593674 -0.00347768  -2.61551e-05 0.000898228 -0.00347768  0.00014639 0.000756156 -0.00347768  0.000441992 0.000456493 -0.00347768  
            </DataArray>
         </PointData> 
      </Piece>
   </UnstructuredGrid> 
</VTKFile>
