<?xml version="1.0"?>
<VTKFile type="UnstructuredGrid" version="0.1" byte_order="LittleEndian">
   <UnstructuredGrid>
      <Piece NumberOfPoints="25" NumberOfCells="0" > 
         <Points> 
            <DataArray type="Float64" Name="Position" NumberOfComponents="3" format="ascii"> 
               0  0  15  
               0.75  0  15  
               1.5  0  15  
               2.25  0  15  
               3  0  15  
               0  0.75  15  
               0.75  0.75  15  
               1.5  0.75  15  
               2.25  0.75  15  
               3  0.75  15  
               0  1.5  15  
               0.75  1.5  15  
               1.5  1.5  15  
               2.25  1.5  15  
               3  1.5  15  
               0  2.25  15  
               0.75  2.25  15  
               1.5  2.25  15  
               2.25  2.25  15  
               3  2.25  15  
               0  3  15  
               0.75  3  15  
               1.5  3  15  
               2.25  3  15  
               3  3  15  
            </DataArray>
         </Points> 

         <Cells>
            <DataArray type="Int32" Name="connectivity" NumberOfComponents="1" format="ascii">
               
            </DataArray> 
            <DataArray type="Int32" Name="offsets" NumberOfComponents="1" format="ascii">
               
            </DataArray>
            <DataArray type="UInt8"  Name="types" NumberOfComponents="1" format="ascii">
               
            </DataArray>
         </Cells>
         <PointData Scalars="Rank " Vectors="Displacement Velocity Traction ">
            <DataArray type="UInt32" Name="Rank" NumberOfComponents="1" format="ascii">
               0 0 0 0 0 0 0 0 0 0 0 0 0 0 0 0 0 0 0 0 0 0 0 0 0 
            </DataArray>
            <DataArray type="Float64" Name="Displacement" NumberOfComponents="3" format="ascii">
               0.00107711 0.00108941 -0.00092201  0.00101094 0.000134534 -0.00091253  0.000771769 -0.000150638 -0.000870736  0.000495342 -0.000178275 -0.000912085  0.000391325 -0.000740667 -0.000924246  4.4337e-05 0.00102402 -0.000909589  4.31122e-05 0.000131003 -0.000823057  -0.000112391 -6.82702e-05 -0.000755034  -0.000259271 -0.000174217 -0.000854695  -0.000245274 -0.000847886 -0.000890907  -0.000248684 0.000794663 -0.000869414  -0.000165888 -3.63723e-05 -0.000755872  -0.000277277 -0.000190902 -0.000631662  -0.000379049 -0.000352133 -0.00075836  -0.000291861 -0.00111627 -0.000865613  -0.000298173 0.000526389 -0.000912484  -0.000287299 -0.000197413 -0.00085609  -0.000444958 -0.000304782 -0.000758855  -0.000601783 -0.000530901 -0.000829389  -0.000603402 -0.00133397 -0.000906967  -0.000858194 0.000423425 -0.000923343  -0.000956948 -0.000193667 -0.000890386  -0.00120436 -0.000232018 -0.000864437  -0.00139982 -0.000547543 -0.000904992  -0.00144864 -0.0013925 -0.000913248  
            </DataArray>
            <DataArray type="Float64" Name="Velocity" NumberOfComponents="3" format="ascii">
               0.000448291 0.000565538 -0.000928176  0.000405176 2.65128e-05 -0.000939122  0.000268341 -0.000173154 -0.000911001  0.000114824 -0.000154108 -0.000947473  5.46732e-05 -0.000457574 -0.000943836  -9.91243e-05 0.000521706 -0.000932628  -0.000106246 1.84954e-05 -0.000875837  -0.000217888 -0.000119163 -0.000824636  -0.000325115 -0.00015072 -0.000911328  -0.000322206 -0.000527611 -0.000928298  -0.000278976 0.000385311 -0.000904441  -0.000226533 -9.3517e-05 -0.000824763  -0.00028699 -0.000176276 -0.00072123  -0.00034899 -0.000253279 -0.00082811  -0.000298496 -0.000691506 -0.000910065  -0.000265102 0.000231342 -0.000942556  -0.000263593 -0.000197054 -0.00091265  -0.00037257 -0.000231248 -0.000828575  -0.000485979 -0.000358793 -0.000883429  -0.000495349 -0.000827146 -0.000939747  -0.000602058 0.000169671 -0.000931145  -0.000671403 -0.000190501 -0.000923663  -0.000837243 -0.000174129 -0.000904428  -0.000977151 -0.000363642 -0.000933046  -0.00102105 -0.000869111 -0.000927567  
            </DataArray>
            <DataArray type="Float64" Name="Traction" NumberOfComponents="3" format="ascii">
               0 0 0  0 0 0  0 0 0  0 0 0  0 0 0  0 0 0  0 0 0  0 0 0  0 0 0  0 0 0  0 0 0  0 0 0  0 0 0  0 0 0  0 0 0  0 0 0  0 0 0  0 0 0  0 0 0  0 0 0  0 0 0  0 0 0  0 0 0  0 0 0  0 0 0  
            </DataArray>
         </PointData> 
      </Piece>
   </UnstructuredGrid> 
</VTKFile>
