<?xml version="1.0"?>
<VTKFile type="UnstructuredGrid" version="0.1" byte_order="LittleEndian">
   <UnstructuredGrid>
      <Piece NumberOfPoints="25" NumberOfCells="0" > 
         <Points> 
            <DataArray type="Float64" Name="Position" NumberOfComponents="3" format="ascii"> 
               0  0  15  
               0.75  0  15  
               1.5  0  15  
               2.25  0  15  
               3  0  15  
               0  0.75  15  
               0.75  0.75  15  
               1.5  0.75  15  
               2.25  0.75  15  
               3  0.75  15  
               0  1.5  15  
               0.75  1.5  15  
               1.5  1.5  15  
               2.25  1.5  15  
               3  1.5  15  
               0  2.25  15  
               0.75  2.25  15  
               1.5  2.25  15  
               2.25  2.25  15  
               3  2.25  15  
               0  3  15  
               0.75  3  15  
               1.5  3  15  
               2.25  3  15  
               3  3  15  
            </DataArray>
         </Points> 

         <Cells>
            <DataArray type="Int32" Name="connectivity" NumberOfComponents="1" format="ascii">
               
            </DataArray> 
            <DataArray type="Int32" Name="offsets" NumberOfComponents="1" format="ascii">
               
            </DataArray>
            <DataArray type="UInt8"  Name="types" NumberOfComponents="1" format="ascii">
               
            </DataArray>
         </Cells>
         <PointData Scalars="Rank " Vectors="Displacement Velocity Traction ">
            <DataArray type="UInt32" Name="Rank" NumberOfComponents="1" format="ascii">
               0 0 0 0 0 0 0 0 0 0 0 0 0 0 0 0 0 0 0 0 0 0 0 0 0 
            </DataArray>
            <DataArray type="Float64" Name="Displacement" NumberOfComponents="3" format="ascii">
               0.000264357 0.00016734 -2.07759e-05  0.000257745 4.05178e-05 -1.77155e-05  0.000228016 2.62885e-05 -1.51075e-05  0.000193659 9.66887e-06 -1.6638e-05  0.000182638 -6.29293e-05 -2.01484e-05  9.17843e-05 0.000163027 -1.81587e-05  9.43874e-05 4.27943e-05 -1.2048e-05  9.09105e-05 2.80583e-05 -7.38951e-06  9.05897e-05 4.80205e-06 -1.14492e-05  9.693e-05 -7.36874e-05 -1.69423e-05  5.86283e-05 0.000139159 -1.54344e-05  6.32491e-05 3.16139e-05 -7.33825e-06  4.63887e-05 1.02742e-06 -1.23372e-06  3.46248e-05 -1.93363e-05 -7.56973e-06  4.24305e-05 -0.000102448 -1.57038e-05  2.45343e-05 0.000109266 -1.67016e-05  2.76138e-05 1.71899e-05 -1.13165e-05  2.30317e-05 -2.33362e-05 -7.46091e-06  2.09395e-05 -3.92877e-05 -1.19537e-05  2.33354e-05 -0.000119938 -1.81668e-05  -3.39466e-05 9.92796e-05 -2.03826e-05  -3.94697e-05 1.26123e-05 -1.70235e-05  -5.38004e-05 -2.93088e-05 -1.55609e-05  -5.67504e-05 -4.68827e-05 -1.80694e-05  -5.22033e-05 -0.000119671 -2.11646e-05  
            </DataArray>
            <DataArray type="Float64" Name="Velocity" NumberOfComponents="3" format="ascii">
               0.000176595 0.000153789 -5.20274e-05  0.000168966 3.48969e-05 -4.68128e-05  0.000139496 6.16201e-06 -4.19947e-05  0.000105017 -1.03418e-05 -4.49793e-05  9.22085e-05 -8.56233e-05 -5.04527e-05  4.40547e-05 0.000146655 -4.75671e-05  4.50947e-05 3.51784e-05 -3.5739e-05  3.18746e-05 1.366e-05 -2.83149e-05  2.05088e-05 -1.08486e-05 -3.64511e-05  2.3589e-05 -9.67307e-05 -4.39132e-05  5.21081e-06 0.000118688 -4.29661e-05  1.44374e-05 1.76003e-05 -2.83779e-05  1.45475e-06 -5.62949e-06 -1.67748e-05  -8.26436e-06 -3.3593e-05 -2.86115e-05  3.1324e-06 -0.00012721 -4.16764e-05  -1.49939e-05 8.58186e-05 -4.56958e-05  -1.23876e-05 -3.19819e-08 -3.62678e-05  -2.59188e-05 -2.3252e-05 -2.84859e-05  -3.85374e-05 -5.63066e-05 -3.59412e-05  -3.63918e-05 -0.0001532 -4.60919e-05  -7.25106e-05 7.39213e-05 -5.19703e-05  -8.13727e-05 -1.47986e-06 -4.43772e-05  -0.000104218 -1.93599e-05 -4.21814e-05  -0.000121274 -6.04983e-05 -4.6814e-05  -0.000124279 -0.000160065 -5.05425e-05  
            </DataArray>
            <DataArray type="Float64" Name="Traction" NumberOfComponents="3" format="ascii">
               0.00353403 0.00335711 -0.00502404  -0.000403307 0.00371474 -0.00502404  -0.000453663 0.00393604 -0.00502404  -0.000507287 0.00424404 -0.00502404  -0.00462368 0.00410147 -0.00502404  0.00441184 -0.00041301 -0.00502404  0.000463397 0.000825275 -0.00502404  2.86094e-05 0.00145512 -0.00502404  -0.000162966 0.000813076 -0.00502404  -0.00363973 0.000566111 -0.00502404  0.00435937 -0.000628176 -0.00502404  0.000584233 8.29956e-05 -0.00502404  -9.48519e-05 -9.09556e-06 -0.00502404  -0.000683027 -0.000235554 -0.00502404  -0.00421123 0.000183972 -0.00502404  0.00432873 -0.000636173 -0.00502404  0.000139298 -0.000574658 -0.00502404  -0.000306863 -0.00143557 -0.00502404  -0.00076135 -0.0014405 -0.00502404  -0.00222514 -0.00126 -0.00502404  0.00435812 -0.0051517 -0.00502404  0.000119907 -0.00382023 -0.00502404  0.0002965 -0.00417198 -0.00502404  -0.000735054 -0.00288258 -0.00502404  -6.00487e-05 -0.00049446 -0.00502404  
            </DataArray>
         </PointData> 
      </Piece>
   </UnstructuredGrid> 
</VTKFile>
