<?xml version="1.0"?>
<VTKFile type="UnstructuredGrid" version="0.1" byte_order="LittleEndian">
   <UnstructuredGrid>
      <Piece NumberOfPoints="25" NumberOfCells="0" > 
         <Points> 
            <DataArray type="Float64" Name="Position" NumberOfComponents="3" format="ascii"> 
               0  0  20  
               0.75  0  20  
               1.5  0  20  
               2.25  0  20  
               3  0  20  
               0  0.75  20  
               0.75  0.75  20  
               1.5  0.75  20  
               2.25  0.75  20  
               3  0.75  20  
               0  1.5  20  
               0.75  1.5  20  
               1.5  1.5  20  
               2.25  1.5  20  
               3  1.5  20  
               0  2.25  20  
               0.75  2.25  20  
               1.5  2.25  20  
               2.25  2.25  20  
               3  2.25  20  
               0  3  20  
               0.75  3  20  
               1.5  3  20  
               2.25  3  20  
               3  3  20  
            </DataArray>
         </Points> 

         <Cells>
            <DataArray type="Int32" Name="connectivity" NumberOfComponents="1" format="ascii">
               
            </DataArray> 
            <DataArray type="Int32" Name="offsets" NumberOfComponents="1" format="ascii">
               
            </DataArray>
            <DataArray type="UInt8"  Name="types" NumberOfComponents="1" format="ascii">
               
            </DataArray>
         </Cells>
         <PointData Scalars="Rank " Vectors="Displacement Velocity Traction ">
            <DataArray type="UInt32" Name="Rank" NumberOfComponents="1" format="ascii">
               0 0 0 0 0 0 0 0 0 0 0 0 0 0 0 0 0 0 0 0 0 0 0 0 0 
            </DataArray>
            <DataArray type="Float64" Name="Displacement" NumberOfComponents="3" format="ascii">
               7.56797e-07 8.25163e-07 -4.18428e-06  2.02924e-07 1.10368e-06 -4.62931e-06  -6.43242e-07 9.98365e-07 -4.79996e-06  -6.18541e-07 9.30146e-07 -4.82146e-06  -6.67389e-07 1.77066e-06 -4.17528e-06  9.90733e-07 2.41604e-07 -4.6049e-06  5.42526e-07 5.93252e-07 -4.97449e-06  -3.44929e-07 7.7507e-07 -5.26174e-06  -7.09083e-07 7.69582e-07 -5.32576e-06  -7.4293e-07 1.24152e-06 -4.55359e-06  9.16436e-07 -5.85122e-07 -4.77398e-06  7.42801e-07 -2.93854e-07 -5.26814e-06  -1.12378e-07 -9.97842e-08 -5.39616e-06  -7.94914e-07 2.03379e-07 -5.30048e-06  -8.58692e-07 5.96583e-07 -4.71006e-06  8.6597e-07 -6.08528e-07 -4.78632e-06  7.35032e-07 -6.99666e-07 -5.3275e-06  2.11147e-07 -7.95404e-07 -5.29636e-06  -5.55094e-07 -5.55273e-07 -5.03912e-06  -9.91084e-07 -2.48746e-07 -4.58869e-06  1.70368e-06 -6.8435e-07 -4.1624e-06  1.20958e-06 -7.58898e-07 -4.58001e-06  5.98724e-07 -9.01076e-07 -4.73492e-06  -2.93036e-07 -1.04137e-06 -4.60323e-06  -8.99563e-07 -8.63295e-07 -4.1304e-06  
            </DataArray>
            <DataArray type="Float64" Name="Velocity" NumberOfComponents="3" format="ascii">
               -8.00626e-07 -7.16061e-07 1.31455e-06  4.37804e-07 -1.74076e-06 5.16693e-07  6.70281e-07 -2.21425e-06 -9.00656e-08  5.04362e-07 -1.33774e-06 1.07367e-07  1.49236e-06 -1.32836e-06 1.29101e-06  -1.92016e-06 4.91549e-07 5.72911e-07  -3.6821e-07 -2.8486e-07 -7.72626e-07  -1.21482e-07 -6.46811e-07 -1.56616e-06  8.43932e-08 -1.1617e-07 -1.00867e-06  1.44842e-06 -4.26171e-07 2.56627e-07  -2.32378e-06 7.51296e-07 -4.82886e-08  -7.08633e-07 -6.55967e-08 -1.5772e-06  -2.18772e-07 -1.76423e-07 -2.5077e-06  4.04372e-07 -5.19582e-08 -1.57913e-06  2.13349e-06 -7.05056e-07 -1.86617e-08  -1.40371e-06 5.3324e-07 1.47421e-07  -1.732e-07 1.23311e-07 -1.01139e-06  -8.82376e-08 4.51651e-07 -1.58787e-06  1.96406e-07 2.57377e-07 -7.98178e-07  1.69539e-06 -4.33525e-07 5.28286e-07  -1.42618e-06 1.4873e-06 1.31011e-06  -5.10551e-07 1.46542e-06 2.39191e-07  -7.75185e-07 2.16345e-06 -3.26124e-08  -5.43087e-07 1.76056e-06 5.45795e-07  6.09173e-07 7.42865e-07 1.31882e-06  
            </DataArray>
            <DataArray type="Float64" Name="Traction" NumberOfComponents="3" format="ascii">
               -4.60794e-06 -3.3879e-06 5.49479e-06  -2.88186e-06 -4.08342e-06 5.49479e-06  2.77245e-06 -2.58003e-06 5.49479e-06  2.41202e-08 -1.30263e-06 5.49479e-06  -2.8907e-06 -6.44338e-06 5.49479e-06  -3.72951e-06 -1.15116e-06 5.49479e-06  -1.75918e-06 -1.55478e-06 5.49479e-06  3.96863e-06 -3.09068e-06 5.49479e-06  1.912e-06 -3.06631e-06 5.49479e-06  -2.06501e-06 -4.4206e-06 5.49479e-06  -3.07341e-06 3.95073e-06 5.49479e-06  -3.68801e-06 3.99987e-06 5.49479e-06  1.11659e-06 1.34477e-06 5.49479e-06  3.32395e-06 -1.96766e-06 5.49479e-06  1.64496e-06 -1.69982e-06 5.49479e-06  -1.46759e-06 1.09814e-06 5.49479e-06  -3.5011e-06 2.16436e-06 5.49479e-06  -2.61529e-06 3.4233e-06 5.49479e-06  5.67985e-07 1.36903e-06 5.49479e-06  2.16498e-06 8.99052e-07 5.49479e-06  -5.70599e-06 -1.56896e-06 5.49479e-06  -4.19219e-06 -1.50432e-06 5.49479e-06  -1.78127e-06 2.05611e-06 5.49479e-06  1.02452e-06 3.52316e-06 5.49479e-06  2.13934e-06 2.29295e-06 5.49479e-06  
            </DataArray>
         </PointData> 
      </Piece>
   </UnstructuredGrid> 
</VTKFile>
