<?xml version="1.0"?>
<VTKFile type="UnstructuredGrid" version="0.1" byte_order="LittleEndian">
   <UnstructuredGrid>
      <Piece NumberOfPoints="25" NumberOfCells="0" > 
         <Points> 
            <DataArray type="Float64" Name="Position" NumberOfComponents="3" format="ascii"> 
               0  0  15  
               0.75  0  15  
               1.5  0  15  
               2.25  0  15  
               3  0  15  
               0  0.75  15  
               0.75  0.75  15  
               1.5  0.75  15  
               2.25  0.75  15  
               3  0.75  15  
               0  1.5  15  
               0.75  1.5  15  
               1.5  1.5  15  
               2.25  1.5  15  
               3  1.5  15  
               0  2.25  15  
               0.75  2.25  15  
               1.5  2.25  15  
               2.25  2.25  15  
               3  2.25  15  
               0  3  15  
               0.75  3  15  
               1.5  3  15  
               2.25  3  15  
               3  3  15  
            </DataArray>
         </Points> 

         <Cells>
            <DataArray type="Int32" Name="connectivity" NumberOfComponents="1" format="ascii">
               
            </DataArray> 
            <DataArray type="Int32" Name="offsets" NumberOfComponents="1" format="ascii">
               
            </DataArray>
            <DataArray type="UInt8"  Name="types" NumberOfComponents="1" format="ascii">
               
            </DataArray>
         </Cells>
         <PointData Scalars="Rank " Vectors="Displacement Velocity Traction ">
            <DataArray type="UInt32" Name="Rank" NumberOfComponents="1" format="ascii">
               0 0 0 0 0 0 0 0 0 0 0 0 0 0 0 0 0 0 0 0 0 0 0 0 0 
            </DataArray>
            <DataArray type="Float64" Name="Displacement" NumberOfComponents="3" format="ascii">
               2.23118e-06 2.15021e-06 -2.10394e-06  2.1676e-06 -1.19742e-07 -1.98468e-06  1.86344e-06 -2.56153e-07 -1.82573e-06  1.54207e-06 5.38592e-08 -1.93949e-06  1.44998e-06 -1.84795e-07 -2.11212e-06  -5.94651e-08 1.93835e-06 -1.98536e-06  6.87931e-09 -1.22007e-07 -1.64429e-06  -2.71766e-08 -1.99418e-07 -1.41278e-06  -8.28728e-08 1.05827e-07 -1.68703e-06  -8.83282e-08 -3.36575e-07 -1.91296e-06  4.67125e-07 1.47388e-06 -1.82507e-06  3.76129e-07 -2.94749e-08 -1.41269e-06  -1.49713e-07 -2.91576e-07 -1.05413e-06  -7.02607e-07 2.55185e-07 -1.42187e-06  -9.68421e-07 -5.56357e-07 -1.82612e-06  3.24885e-07 1.11243e-06 -1.93728e-06  3.00849e-07 9.14724e-08 -1.68748e-06  2.71124e-07 -5.30707e-07 -1.42112e-06  2.80856e-07 3.03737e-07 -1.65512e-06  1.95645e-07 -4.64131e-07 -1.98082e-06  -1.17667e-06 9.4678e-07 -2.11022e-06  -1.35147e-06 1.749e-07 -1.91479e-06  -1.9272e-06 -5.46002e-07 -1.82826e-06  -2.19445e-06 1.94652e-07 -1.98324e-06  -2.05193e-06 -4.10442e-07 -2.10506e-06  
            </DataArray>
            <DataArray type="Float64" Name="Velocity" NumberOfComponents="3" format="ascii">
               4.03327e-06 2.93498e-06 -2.42139e-06  3.96115e-06 -7.3716e-08 -2.40804e-06  3.41105e-06 -7.38545e-07 -2.28979e-06  2.84452e-06 1.02212e-07 -2.36513e-06  2.70553e-06 4.26595e-08 -2.4253e-06  1.3122e-07 2.65773e-06 -2.40911e-06  2.36826e-07 -4.35457e-08 -2.1884e-06  1.02995e-07 -5.24593e-07 -2.0851e-06  -1.49606e-07 2.23696e-07 -2.28641e-06  -2.08818e-07 -1.81445e-07 -2.29242e-06  7.08481e-07 2.1569e-06 -2.28729e-06  6.02569e-07 2.86751e-08 -2.08499e-06  -1.48632e-07 -5.75992e-07 -1.87592e-06  -1.02494e-06 4.41201e-07 -2.10038e-06  -1.4409e-06 -4.6326e-07 -2.27806e-06  6.88814e-07 1.72329e-06 -2.35892e-06  6.34076e-07 1.33195e-07 -2.28719e-06  4.79756e-07 -8.10019e-07 -2.09789e-06  4.24724e-07 5.52278e-07 -2.21082e-06  2.83807e-07 -1.80896e-07 -2.39661e-06  -1.97545e-06 1.50328e-06 -2.42116e-06  -2.19893e-06 2.47008e-07 -2.29764e-06  -2.89067e-06 -8.20011e-07 -2.28327e-06  -3.02205e-06 3.97537e-07 -2.4029e-06  -2.71319e-06 2.33378e-08 -2.41533e-06  
            </DataArray>
            <DataArray type="Float64" Name="Traction" NumberOfComponents="3" format="ascii">
               7.86582e-05 7.69453e-05 -0.000167308  -2.83936e-05 5.87699e-05 -0.000167308  -1.4443e-05 -4.00036e-06 -0.000167308  5.75508e-06 3.64988e-05 -0.000167308  -8.05135e-05 9.28345e-05 -0.000167308  6.27197e-05 -2.601e-05 -0.000167308  -3.70019e-07 -7.65936e-06 -0.000167308  -5.5081e-07 -7.16691e-06 -0.000167308  6.02857e-06 -1.55572e-06 -0.000167308  -9.7685e-05 1.16538e-05 -0.000167308  6.42363e-05 -7.04156e-06 -0.000167308  1.59978e-06 -3.82837e-06 -0.000167308  -6.5498e-07 -1.06158e-06 -0.000167308  1.89073e-05 2.96062e-06 -0.000167308  -0.000109018 8.06096e-06 -0.000167308  7.46673e-05 1.00087e-05 -0.000167308  1.9301e-06 9.6387e-06 -0.000167308  5.69465e-06 1.28031e-05 -0.000167308  8.68865e-06 8.44013e-06 -0.000167308  -6.22927e-05 -5.56424e-06 -0.000167308  7.62998e-05 -6.10679e-05 -0.000167308  5.51298e-06 -7.0269e-05 -0.000167308  1.00562e-05 -5.38141e-05 -0.000167308  1.02266e-05 -8.90685e-06 -0.000167308  9.45942e-06 -4.14824e-06 -0.000167308  
            </DataArray>
         </PointData> 
      </Piece>
   </UnstructuredGrid> 
</VTKFile>
