<?xml version="1.0"?>
<VTKFile type="UnstructuredGrid" version="0.1" byte_order="LittleEndian">
   <UnstructuredGrid>
      <Piece NumberOfPoints="25" NumberOfCells="0" > 
         <Points> 
            <DataArray type="Float64" Name="Position" NumberOfComponents="3" format="ascii"> 
               0  0  20  
               0.75  0  20  
               1.5  0  20  
               2.25  0  20  
               3  0  20  
               0  0.75  20  
               0.75  0.75  20  
               1.5  0.75  20  
               2.25  0.75  20  
               3  0.75  20  
               0  1.5  20  
               0.75  1.5  20  
               1.5  1.5  20  
               2.25  1.5  20  
               3  1.5  20  
               0  2.25  20  
               0.75  2.25  20  
               1.5  2.25  20  
               2.25  2.25  20  
               3  2.25  20  
               0  3  20  
               0.75  3  20  
               1.5  3  20  
               2.25  3  20  
               3  3  20  
            </DataArray>
         </Points> 

         <Cells>
            <DataArray type="Int32" Name="connectivity" NumberOfComponents="1" format="ascii">
               
            </DataArray> 
            <DataArray type="Int32" Name="offsets" NumberOfComponents="1" format="ascii">
               
            </DataArray>
            <DataArray type="UInt8"  Name="types" NumberOfComponents="1" format="ascii">
               
            </DataArray>
         </Cells>
         <PointData Scalars="Rank " Vectors="Displacement Velocity Traction ">
            <DataArray type="UInt32" Name="Rank" NumberOfComponents="1" format="ascii">
               0 0 0 0 0 0 0 0 0 0 0 0 0 0 0 0 0 0 0 0 0 0 0 0 0 
            </DataArray>
            <DataArray type="Float64" Name="Displacement" NumberOfComponents="3" format="ascii">
               0 0 0  0 0 0  0 0 0  0 0 0  0 0 0  0 0 0  0 0 0  0 0 0  0 0 0  0 0 0  0 0 0  0 0 0  0 0 0  0 0 0  0 0 0  0 0 0  0 0 0  0 0 0  0 0 0  0 0 0  0 0 0  0 0 0  0 0 0  0 0 0  0 0 0  
            </DataArray>
            <DataArray type="Float64" Name="Velocity" NumberOfComponents="3" format="ascii">
               0 0 0  0 0 0  0 0 0  0 0 0  0 0 0  0 0 0  0 0 0  0 0 0  0 0 0  0 0 0  0 0 0  0 0 0  0 0 0  0 0 0  0 0 0  0 0 0  0 0 0  0 0 0  0 0 0  0 0 0  0 0 0  0 0 0  0 0 0  0 0 0  0 0 0  
            </DataArray>
            <DataArray type="Float64" Name="Traction" NumberOfComponents="3" format="ascii">
               -0.000322662 -0.000301748 -0.00228177  -0.000118406 -0.000487814 -0.00228177  9.3373e-05 -0.000597671 -0.00228177  9.95448e-05 -0.000406351 -0.00228177  0.000265994 -0.0004046 -0.00228177  -0.000502702 -0.000102255 -0.00228177  -0.000205893 -0.000196417 -0.00228177  0.000150735 -0.000319098 -0.00228177  0.000189403 -0.000204768 -0.00228177  0.000368367 -0.000173483 -0.00228177  -0.000616687 9.89914e-05 -0.00228177  -0.000329935 0.000147951 -0.00228177  0.000127608 0.000125835 -0.00228177  0.000296507 3.57163e-05 -0.00228177  0.000565428 -1.21898e-05 -0.00228177  -0.000416349 0.000123474 -0.00228177  -0.000206238 0.000200827 -0.00228177  4.06639e-05 0.000302742 -0.00228177  0.000187117 0.000193567 -0.00228177  0.000467444 9.75181e-05 -0.00228177  -0.000415015 0.000303661 -0.00228177  -0.000175409 0.000395211 -0.00228177  -3.27162e-06 0.000583735 -0.00228177  9.84642e-05 0.000484239 -0.00228177  0.000286074 0.000294727 -0.00228177  
            </DataArray>
         </PointData> 
      </Piece>
   </UnstructuredGrid> 
</VTKFile>
