<?xml version="1.0"?>
<VTKFile type="UnstructuredGrid" version="0.1" byte_order="LittleEndian">
   <UnstructuredGrid>
      <Piece NumberOfPoints="25" NumberOfCells="0" > 
         <Points> 
            <DataArray type="Float64" Name="Position" NumberOfComponents="3" format="ascii"> 
               0  0  20  
               0.75  0  20  
               1.5  0  20  
               2.25  0  20  
               3  0  20  
               0  0.75  20  
               0.75  0.75  20  
               1.5  0.75  20  
               2.25  0.75  20  
               3  0.75  20  
               0  1.5  20  
               0.75  1.5  20  
               1.5  1.5  20  
               2.25  1.5  20  
               3  1.5  20  
               0  2.25  20  
               0.75  2.25  20  
               1.5  2.25  20  
               2.25  2.25  20  
               3  2.25  20  
               0  3  20  
               0.75  3  20  
               1.5  3  20  
               2.25  3  20  
               3  3  20  
            </DataArray>
         </Points> 

         <Cells>
            <DataArray type="Int32" Name="connectivity" NumberOfComponents="1" format="ascii">
               
            </DataArray> 
            <DataArray type="Int32" Name="offsets" NumberOfComponents="1" format="ascii">
               
            </DataArray>
            <DataArray type="UInt8"  Name="types" NumberOfComponents="1" format="ascii">
               
            </DataArray>
         </Cells>
         <PointData Scalars="Rank " Vectors="Displacement Velocity Traction ">
            <DataArray type="UInt32" Name="Rank" NumberOfComponents="1" format="ascii">
               0 0 0 0 0 0 0 0 0 0 0 0 0 0 0 0 0 0 0 0 0 0 0 0 0 
            </DataArray>
            <DataArray type="Float64" Name="Displacement" NumberOfComponents="3" format="ascii">
               7.06042e-05 7.21122e-05 -0.000288707  -1.43618e-06 0.000126066 -0.000276247  -4.20243e-05 0.000149714 -0.000257496  -3.42492e-05 0.000104893 -0.000272368  -8.13584e-05 0.000130349 -0.000284236  0.000126343 2.04732e-07 -0.000277315  3.87141e-05 3.83948e-05 -0.000236206  -1.07101e-05 6.11013e-05 -0.000207204  -3.38285e-05 3.65886e-05 -0.000244239  -0.000101347 6.44004e-05 -0.000265477  0.000151634 -4.07903e-05 -0.000259504  6.2612e-05 -9.65818e-06 -0.000207597  2.79965e-06 2.96688e-06 -0.000159158  -5.31215e-05 1.03354e-05 -0.000208444  -0.000141245 4.19791e-05 -0.000255008  0.000107875 -3.60273e-05 -0.000274515  3.86124e-05 -3.38456e-05 -0.000244339  1.09753e-05 -5.34407e-05 -0.000208428  -3.24304e-05 -3.34682e-05 -0.000237864  -0.000118437 -1.52817e-07 -0.000272785  0.00013293 -8.47518e-05 -0.000288564  6.67882e-05 -0.000102729 -0.000266839  4.26804e-05 -0.000142386 -0.000256327  -7.7117e-07 -0.000120219 -0.000274249  -7.09871e-05 -7.06421e-05 -0.000283147  
            </DataArray>
            <DataArray type="Float64" Name="Velocity" NumberOfComponents="3" format="ascii">
               7.96034e-05 8.42223e-05 -0.000353715  -6.35429e-07 0.000142431 -0.000349948  -5.19862e-05 0.000166974 -0.000333158  -4.56017e-05 0.000119176 -0.000349386  -9.22517e-05 0.000156338 -0.000353065  0.000138711 3.87624e-06 -0.000348826  4.25381e-05 4.60664e-05 -0.000315138  -1.85486e-05 7.26635e-05 -0.000289052  -4.81634e-05 4.76511e-05 -0.000327863  -0.000118866 8.2634e-05 -0.000340349  0.000164044 -4.75139e-05 -0.000332991  6.96679e-05 -1.46344e-05 -0.000289545  -3.01647e-06 4.4398e-07 -0.000241707  -6.83336e-05 1.16206e-05 -0.000290227  -0.000160644 4.59898e-05 -0.000329997  0.000117914 -4.2436e-05 -0.000350255  4.55331e-05 -4.5058e-05 -0.000328662  8.6049e-06 -6.59437e-05 -0.00029058  -4.39629e-05 -4.1857e-05 -0.000317662  -0.000136518 -7.3297e-06 -0.000346589  0.000155807 -9.02502e-05 -0.000354241  8.15862e-05 -0.000116275 -0.000340739  4.38545e-05 -0.00015877 -0.000330276  -1.06838e-05 -0.000135524 -0.000346411  -8.78475e-05 -8.42996e-05 -0.000349127  
            </DataArray>
            <DataArray type="Float64" Name="Traction" NumberOfComponents="3" format="ascii">
               -0.000583253 -0.000554089 -0.00405397  -0.000205169 -0.000928876 -0.00405397  0.000209847 -0.00110084 -0.00405397  0.000186475 -0.000734446 -0.00405397  0.00045061 -0.000789689 -0.00405397  -0.000953877 -0.000177669 -0.00405397  -0.000402379 -0.000380704 -0.00405397  0.00028625 -0.000600884 -0.00405397  0.000345589 -0.000391002 -0.00405397  0.00064361 -0.000368888 -0.00405397  -0.00113432 0.000227791 -0.00405397  -0.000625766 0.000293149 -0.00405397  0.000228577 0.000237329 -0.00405397  0.000538743 6.35756e-05 -0.00405397  0.00101271 -3.90471e-05 -0.00405397  -0.000763023 0.000229483 -0.00405397  -0.000406397 0.000370089 -0.00405397  5.94771e-05 0.000559537 -0.00405397  0.000340585 0.000360265 -0.00405397  0.000851113 0.00017406 -0.00405397  -0.000820852 0.000512279 -0.00405397  -0.000385691 0.000686429 -0.00405397  -3.84664e-05 0.00104863 -0.00405397  0.000168991 0.000886022 -0.00405397  0.00051656 0.000532939 -0.00405397  
            </DataArray>
         </PointData> 
      </Piece>
   </UnstructuredGrid> 
</VTKFile>
