<?xml version="1.0"?>
<VTKFile type="UnstructuredGrid" version="0.1" byte_order="LittleEndian">
   <UnstructuredGrid>
      <Piece NumberOfPoints="25" NumberOfCells="0" > 
         <Points> 
            <DataArray type="Float64" Name="Position" NumberOfComponents="3" format="ascii"> 
               0  0  20  
               0.75  0  20  
               1.5  0  20  
               2.25  0  20  
               3  0  20  
               0  0.75  20  
               0.75  0.75  20  
               1.5  0.75  20  
               2.25  0.75  20  
               3  0.75  20  
               0  1.5  20  
               0.75  1.5  20  
               1.5  1.5  20  
               2.25  1.5  20  
               3  1.5  20  
               0  2.25  20  
               0.75  2.25  20  
               1.5  2.25  20  
               2.25  2.25  20  
               3  2.25  20  
               0  3  20  
               0.75  3  20  
               1.5  3  20  
               2.25  3  20  
               3  3  20  
            </DataArray>
         </Points> 

         <Cells>
            <DataArray type="Int32" Name="connectivity" NumberOfComponents="1" format="ascii">
               
            </DataArray> 
            <DataArray type="Int32" Name="offsets" NumberOfComponents="1" format="ascii">
               
            </DataArray>
            <DataArray type="UInt8"  Name="types" NumberOfComponents="1" format="ascii">
               
            </DataArray>
         </Cells>
         <PointData Scalars="Rank " Vectors="Displacement Velocity Traction ">
            <DataArray type="UInt32" Name="Rank" NumberOfComponents="1" format="ascii">
               0 0 0 0 0 0 0 0 0 0 0 0 0 0 0 0 0 0 0 0 0 0 0 0 0 
            </DataArray>
            <DataArray type="Float64" Name="Displacement" NumberOfComponents="3" format="ascii">
               0.00126107 0.00125576 -0.00572785  8.30243e-05 0.00210834 -0.00568535  -0.000612532 0.00251337 -0.00547896  -0.000593895 0.00182464 -0.00572017  -0.00135859 0.00221966 -0.00575753  0.0020954 7.62148e-05 -0.00567562  0.000643212 0.000651642 -0.00519402  -0.000202605 0.00102746 -0.00480291  -0.000657541 0.000685611 -0.00539013  -0.00176571 0.00112765 -0.00560997  0.00249571 -0.000611947 -0.00546421  0.00101534 -0.000203153 -0.00480105  -5.56915e-06 -3.40486e-06 -0.00407008  -0.000970184 0.000154452 -0.00483146  -0.00243491 0.000615034 -0.0054689  0.00180236 -0.000574338 -0.00570427  0.00067241 -0.00064841 -0.00538865  0.000150453 -0.000959362 -0.00483031  -0.000618249 -0.000605688 -0.00524655  -0.00205783 -0.000134578 -0.00568273  0.00219381 -0.00132887 -0.00572194  0.00110774 -0.00174526 -0.00559534  0.000610273 -0.00241633 -0.00545422  -0.000131377 -0.00203748 -0.00566998  -0.00129544 -0.00129611 -0.00569915  
            </DataArray>
            <DataArray type="Float64" Name="Velocity" NumberOfComponents="3" format="ascii">
               0.00152098 0.00150051 -0.00656481  9.65236e-05 0.00252196 -0.00638226  -0.000593289 0.00307366 -0.00608774  -0.000574823 0.00221018 -0.00640375  -0.00159121 0.00245987 -0.00655139  0.00253899 7.83554e-05 -0.0063894  0.000730813 0.000716224 -0.00565558  -0.000168878 0.00114468 -0.00506563  -0.000668678 0.000725913 -0.00583824  -0.0021154 0.00113562 -0.00629276  0.00308511 -0.000610954 -0.0060879  0.0011562 -0.000183896 -0.00506241  3.38378e-05 2.06356e-05 -0.00403975  -0.00104181 0.000159049 -0.00509852  -0.00295403 0.000633778 -0.00606968  0.00221265 -0.000587669 -0.00639693  0.000733167 -0.000681216 -0.00583218  0.000170005 -0.00105214 -0.00509566  -0.000647482 -0.000656402 -0.0057123  -0.0024355 -0.000120715 -0.00636904  0.00246031 -0.0015958 -0.00654282  0.00114123 -0.00212384 -0.00628789  0.000643191 -0.00296255 -0.00606832  -0.000106585 -0.00244152 -0.00637241  -0.00150012 -0.00151639 -0.00651083  
            </DataArray>
            <DataArray type="Float64" Name="Traction" NumberOfComponents="3" format="ascii">
               -0.00734101 -0.00742231 -0.0811819  -0.00153319 -0.0145404 -0.0811819  0.00470607 -0.0172213 -0.0811819  0.00361878 -0.0111057 -0.0811819  0.00694754 -0.0123767 -0.0811819  -0.0143698 -0.001581 -0.0811819  -0.00573412 -0.00583986 -0.0811819  0.00503044 -0.00918635 -0.0811819  0.0056941 -0.00587147 -0.0811819  0.0100855 -0.00620377 -0.0811819  -0.0170385 0.00469225 -0.0811819  -0.00908903 0.00504004 -0.0811819  0.00420076 0.00421845 -0.0811819  0.00891072 0.00134699 -0.0811819  0.0165352 -0.00109694 -0.0811819  -0.0109021 0.00340451 -0.0811819  -0.00579079 0.00558065 -0.0811819  0.0013167 0.00881178 -0.0811819  0.00568605 0.00560701 -0.0811819  0.0139124 0.00202611 -0.0811819  -0.0121222 0.00658379 -0.0811819  -0.0060893 0.00983938 -0.0811819  -0.00113753 0.0163276 -0.0811819  0.00199618 0.0137301 -0.0811819  0.00757557 0.00753564 -0.0811819  
            </DataArray>
         </PointData> 
      </Piece>
   </UnstructuredGrid> 
</VTKFile>
