<?xml version="1.0"?>
<VTKFile type="UnstructuredGrid" version="0.1" byte_order="LittleEndian">
   <UnstructuredGrid>
      <Piece NumberOfPoints="25" NumberOfCells="0" > 
         <Points> 
            <DataArray type="Float64" Name="Position" NumberOfComponents="3" format="ascii"> 
               0  0  15  
               0.75  0  15  
               1.5  0  15  
               2.25  0  15  
               3  0  15  
               0  0.75  15  
               0.75  0.75  15  
               1.5  0.75  15  
               2.25  0.75  15  
               3  0.75  15  
               0  1.5  15  
               0.75  1.5  15  
               1.5  1.5  15  
               2.25  1.5  15  
               3  1.5  15  
               0  2.25  15  
               0.75  2.25  15  
               1.5  2.25  15  
               2.25  2.25  15  
               3  2.25  15  
               0  3  15  
               0.75  3  15  
               1.5  3  15  
               2.25  3  15  
               3  3  15  
            </DataArray>
         </Points> 

         <Cells>
            <DataArray type="Int32" Name="connectivity" NumberOfComponents="1" format="ascii">
               
            </DataArray> 
            <DataArray type="Int32" Name="offsets" NumberOfComponents="1" format="ascii">
               
            </DataArray>
            <DataArray type="UInt8"  Name="types" NumberOfComponents="1" format="ascii">
               
            </DataArray>
         </Cells>
         <PointData Scalars="Rank " Vectors="Displacement Velocity Traction ">
            <DataArray type="UInt32" Name="Rank" NumberOfComponents="1" format="ascii">
               0 0 0 0 0 0 0 0 0 0 0 0 0 0 0 0 0 0 0 0 0 0 0 0 0 
            </DataArray>
            <DataArray type="Float64" Name="Displacement" NumberOfComponents="3" format="ascii">
               8.76266e-07 1.00312e-06 -1.11031e-06  8.42643e-07 -7.99974e-08 -1.02019e-06  7.22322e-07 -2.97095e-08 -9.25195e-07  5.91122e-07 2.63578e-08 -9.98736e-07  5.49062e-07 -1.38965e-07 -1.11305e-06  -6.4213e-08 9.01601e-07 -1.0204e-06  -3.80054e-08 -8.73296e-08 -8.04443e-07  -3.38728e-08 -3.42396e-08 -6.43312e-07  -2.02571e-08 3.88943e-08 -8.16095e-07  -1.0849e-08 -2.1019e-07 -9.932e-07  2.21921e-07 6.57742e-07 -9.25139e-07  1.67668e-07 -2.7938e-08 -6.43283e-07  -8.12612e-08 -1.01068e-07 -4.02694e-07  -3.24494e-07 1.06327e-07 -6.46864e-07  -4.42828e-07 -3.25134e-07 -9.27377e-07  1.0967e-07 4.78561e-07 -9.9826e-07  1.00899e-07 4.43662e-08 -8.16253e-07  1.1413e-07 -2.42571e-07 -6.46779e-07  1.3622e-07 1.19706e-07 -8.07934e-07  9.96712e-08 -3.16587e-07 -1.0196e-06  -4.7154e-07 3.99899e-07 -1.11251e-06  -5.56672e-07 8.21625e-08 -9.93608e-07  -8.48879e-07 -2.59216e-07 -9.27982e-07  -1.01927e-06 6.55109e-08 -1.02019e-06  -9.71967e-07 -3.17343e-07 -1.11126e-06  
            </DataArray>
            <DataArray type="Float64" Name="Velocity" NumberOfComponents="3" format="ascii">
               1.96755e-06 1.9667e-06 -1.81944e-06  1.91392e-06 -9.82007e-08 -1.72112e-06  1.65246e-06 -2.60731e-07 -1.57973e-06  1.37684e-06 3.61111e-08 -1.6718e-06  1.29725e-06 -1.83148e-07 -1.83322e-06  -6.47837e-08 1.77445e-06 -1.72183e-06  6.04439e-10 -1.00704e-07 -1.43255e-06  -3.59527e-08 -2.0087e-07 -1.25143e-06  -9.61678e-08 8.67007e-08 -1.47236e-06  -1.0411e-07 -3.1256e-07 -1.64893e-06  3.88117e-07 1.35264e-06 -1.57927e-06  3.2274e-07 -2.70839e-08 -1.25132e-06  -1.35462e-07 -2.63591e-07 -9.74594e-07  -6.16811e-07 2.20211e-07 -1.26008e-06  -8.4674e-07 -4.91442e-07 -1.58115e-06  2.83512e-07 1.01974e-06 -1.66998e-06  2.66204e-07 7.54854e-08 -1.47281e-06  2.29227e-07 -4.55549e-07 -1.25948e-06  2.31066e-07 2.63648e-07 -1.44251e-06  1.58689e-07 -3.97362e-07 -1.71775e-06  -1.08226e-06 8.69081e-07 -1.83146e-06  -1.24001e-06 1.5439e-07 -1.65042e-06  -1.75365e-06 -4.52821e-07 -1.58301e-06  -1.99953e-06 1.74312e-07 -1.71981e-06  -1.8779e-06 -3.47805e-07 -1.82276e-06  
            </DataArray>
            <DataArray type="Float64" Name="Traction" NumberOfComponents="3" format="ascii">
               0 0 0  0 0 0  0 0 0  0 0 0  0 0 0  0 0 0  0 0 0  0 0 0  0 0 0  0 0 0  0 0 0  0 0 0  0 0 0  0 0 0  0 0 0  0 0 0  0 0 0  0 0 0  0 0 0  0 0 0  0 0 0  0 0 0  0 0 0  0 0 0  0 0 0  
            </DataArray>
         </PointData> 
      </Piece>
   </UnstructuredGrid> 
</VTKFile>
