<?xml version="1.0"?>
<VTKFile type="UnstructuredGrid" version="0.1" byte_order="LittleEndian">
   <UnstructuredGrid>
      <Piece NumberOfPoints="25" NumberOfCells="0" > 
         <Points> 
            <DataArray type="Float64" Name="Position" NumberOfComponents="3" format="ascii"> 
               0  0  20  
               0.75  0  20  
               1.5  0  20  
               2.25  0  20  
               3  0  20  
               0  0.75  20  
               0.75  0.75  20  
               1.5  0.75  20  
               2.25  0.75  20  
               3  0.75  20  
               0  1.5  20  
               0.75  1.5  20  
               1.5  1.5  20  
               2.25  1.5  20  
               3  1.5  20  
               0  2.25  20  
               0.75  2.25  20  
               1.5  2.25  20  
               2.25  2.25  20  
               3  2.25  20  
               0  3  20  
               0.75  3  20  
               1.5  3  20  
               2.25  3  20  
               3  3  20  
            </DataArray>
         </Points> 

         <Cells>
            <DataArray type="Int32" Name="connectivity" NumberOfComponents="1" format="ascii">
               
            </DataArray> 
            <DataArray type="Int32" Name="offsets" NumberOfComponents="1" format="ascii">
               
            </DataArray>
            <DataArray type="UInt8"  Name="types" NumberOfComponents="1" format="ascii">
               
            </DataArray>
         </Cells>
         <PointData Scalars="Rank " Vectors="Displacement Velocity Traction ">
            <DataArray type="UInt32" Name="Rank" NumberOfComponents="1" format="ascii">
               0 0 0 0 0 0 0 0 0 0 0 0 0 0 0 0 0 0 0 0 0 0 0 0 0 
            </DataArray>
            <DataArray type="Float64" Name="Displacement" NumberOfComponents="3" format="ascii">
               1.59266e-05 1.49339e-05 -6.25684e-05  -6.74425e-07 2.93454e-05 -5.64787e-05  -7.94492e-06 3.69668e-05 -5.05099e-05  -5.2767e-06 2.49165e-05 -5.43228e-05  -1.89789e-05 2.72065e-05 -6.09402e-05  3.08237e-05 -1.70637e-06 -5.73412e-05  8.98815e-06 7.46143e-06 -4.32993e-05  -3.40458e-07 1.28875e-05 -3.36059e-05  -4.34947e-06 6.03287e-06 -4.36714e-05  -2.30128e-05 1.13314e-05 -5.35766e-05  3.90223e-05 -9.12118e-06 -5.14725e-05  1.48343e-05 -1.35091e-06 -3.3621e-05  2.78608e-06 1.55332e-06 -1.92931e-05  -9.93227e-06 2.55804e-06 -3.39925e-05  -3.46452e-05 1.04691e-05 -5.06531e-05  2.67532e-05 -7.29698e-06 -5.49418e-05  7.81643e-06 -5.39095e-06 -4.34594e-05  3.97199e-06 -1.07007e-05 -3.38397e-05  -5.10361e-06 -6.068e-06 -4.34233e-05  -2.78633e-05 2.69335e-06 -5.6192e-05  2.82836e-05 -2.1344e-05 -6.23194e-05  1.25338e-05 -2.44394e-05 -5.39963e-05  1.13965e-05 -3.54693e-05 -5.09163e-05  3.43367e-06 -2.85708e-05 -5.66181e-05  -1.38475e-05 -1.46923e-05 -6.17019e-05  
            </DataArray>
            <DataArray type="Float64" Name="Velocity" NumberOfComponents="3" format="ascii">
               2.99473e-05 3.03406e-05 -0.000110323  -7.03501e-07 5.20152e-05 -0.00010379  -1.71954e-05 6.03421e-05 -9.5864e-05  -1.4008e-05 4.25263e-05 -0.000101715  -3.39965e-05 5.2875e-05 -0.000107485  5.26538e-05 -1.01691e-07 -0.000104649  1.66534e-05 1.60574e-05 -8.6451e-05  -3.42974e-06 2.47446e-05 -7.46395e-05  -1.29052e-05 1.47232e-05 -8.95761e-05  -4.03371e-05 2.57529e-05 -9.86612e-05  6.19611e-05 -1.68877e-05 -9.72725e-05  2.60812e-05 -3.23839e-06 -7.48414e-05  2.03106e-06 1.61199e-06 -5.49999e-05  -2.0463e-05 4.0763e-06 -7.51597e-05  -5.58232e-05 1.75233e-05 -9.44298e-05  4.47433e-05 -1.55488e-05 -0.000103087  1.63913e-05 -1.34388e-05 -8.94922e-05  5.0463e-06 -2.12918e-05 -7.51073e-05  -1.24284e-05 -1.37749e-05 -8.71179e-05  -4.74689e-05 6.45224e-07 -0.000101755  5.50009e-05 -3.64374e-05 -0.000110336  2.78199e-05 -4.17806e-05 -9.95469e-05  1.85611e-05 -5.72513e-05 -9.54923e-05  1.02222e-06 -4.92835e-05 -0.000103052  -2.83875e-05 -2.90429e-05 -0.000106974  
            </DataArray>
            <DataArray type="Float64" Name="Traction" NumberOfComponents="3" format="ascii">
               -0.000161129 -0.000149556 -0.00123045  -6.50291e-05 -0.000229606 -0.00123045  3.11472e-05 -0.000301178 -0.00123045  4.68475e-05 -0.00020839 -0.00123045  0.00014394 -0.000181392 -0.00123045  -0.00023415 -5.76286e-05 -0.00123045  -9.08517e-05 -9.05754e-05 -0.00123045  7.42252e-05 -0.000155638 -0.00123045  9.72224e-05 -9.69272e-05 -0.00123045  0.00019929 -6.58152e-05 -0.00123045  -0.00030694 3.05459e-05 -0.00123045  -0.000156423 6.78937e-05 -0.00123045  6.80272e-05 6.21805e-05 -0.00123045  0.000154506 2.02161e-05 -0.00123045  0.000300054 3.74369e-06 -0.00123045  -0.00020421 5.49288e-05 -0.00123045  -9.01502e-05 9.93282e-05 -0.00123045  2.7567e-05 0.000151568 -0.00123045  9.66591e-05 9.48311e-05 -0.00123045  0.000240067 5.29418e-05 -0.00123045  -0.000176954 0.000158949 -0.00123045  -5.93191e-05 0.000210882 -0.00123045  1.28957e-05 0.000303892 -0.00123045  5.59868e-05 0.00024248 -0.00123045  0.000147772 0.0001493 -0.00123045  
            </DataArray>
         </PointData> 
      </Piece>
   </UnstructuredGrid> 
</VTKFile>
