<?xml version="1.0"?>
<VTKFile type="UnstructuredGrid" version="0.1" byte_order="LittleEndian">
   <UnstructuredGrid>
      <Piece NumberOfPoints="25" NumberOfCells="0" > 
         <Points> 
            <DataArray type="Float64" Name="Position" NumberOfComponents="3" format="ascii"> 
               0  0  15  
               0.75  0  15  
               1.5  0  15  
               2.25  0  15  
               3  0  15  
               0  0.75  15  
               0.75  0.75  15  
               1.5  0.75  15  
               2.25  0.75  15  
               3  0.75  15  
               0  1.5  15  
               0.75  1.5  15  
               1.5  1.5  15  
               2.25  1.5  15  
               3  1.5  15  
               0  2.25  15  
               0.75  2.25  15  
               1.5  2.25  15  
               2.25  2.25  15  
               3  2.25  15  
               0  3  15  
               0.75  3  15  
               1.5  3  15  
               2.25  3  15  
               3  3  15  
            </DataArray>
         </Points> 

         <Cells>
            <DataArray type="Int32" Name="connectivity" NumberOfComponents="1" format="ascii">
               
            </DataArray> 
            <DataArray type="Int32" Name="offsets" NumberOfComponents="1" format="ascii">
               
            </DataArray>
            <DataArray type="UInt8"  Name="types" NumberOfComponents="1" format="ascii">
               
            </DataArray>
         </Cells>
         <PointData Scalars="Rank " Vectors="Displacement Velocity Traction ">
            <DataArray type="UInt32" Name="Rank" NumberOfComponents="1" format="ascii">
               0 0 0 0 0 0 0 0 0 0 0 0 0 0 0 0 0 0 0 0 0 0 0 0 0 
            </DataArray>
            <DataArray type="Float64" Name="Displacement" NumberOfComponents="3" format="ascii">
               0.0018427 0.00211113 -0.00516533  0.00166939 0.000185904 -0.00513792  0.00118222 -0.000494358 -0.00495589  0.000654591 -0.000515245 -0.00517272  0.000434861 -0.00158882 -0.00519666  -0.000154973 0.00193645 -0.00512716  -0.00020906 0.000126503 -0.00471086  -0.000598171 -0.000351615 -0.00436873  -0.000954915 -0.000537966 -0.00489021  -0.000953998 -0.00186181 -0.00507115  -0.00081417 0.00145419 -0.0049407  -0.000669221 -0.000278408 -0.00436718  -0.00090628 -0.000599122 -0.00372267  -0.00114222 -0.000917151 -0.00439397  -0.000991587 -0.00245532 -0.00494613  -0.000866286 0.000929146 -0.00515713  -0.00088264 -0.000647206 -0.00488935  -0.00124951 -0.000839018 -0.00439307  -0.00163602 -0.00131196 -0.00475711  -0.00169186 -0.00294778 -0.00513406  -0.00198231 0.000707391 -0.00516136  -0.00224654 -0.000651312 -0.00505667  -0.00282374 -0.000691761 -0.00493113  -0.00330343 -0.00137267 -0.00512062  -0.00346753 -0.00311574 -0.00513713  
            </DataArray>
            <DataArray type="Float64" Name="Velocity" NumberOfComponents="3" format="ascii">
               0.000299034 0.000457277 -0.00571923  0.000205461 6.44428e-05 -0.00558396  9.79392e-05 -0.000130031 -0.00533925  2.8606e-05 -0.000191245 -0.00560965  -3.70604e-05 -0.000361122 -0.00571095  -7.68872e-05 0.000362231 -0.00558909  -0.000167195 -2.76208e-05 -0.0049915  -0.000313846 -0.000169648 -0.00450682  -0.000428132 -0.000257133 -0.00515856  -0.000471027 -0.00049409 -0.00550899  -0.000261262 0.000248588 -0.0053375  -0.000298005 -0.000177058 -0.00450374  -0.00038715 -0.000260093 -0.00365292  -0.000487218 -0.000365202 -0.00453629  -0.000514685 -0.000672986 -0.00532416  -0.000325497 0.000173201 -0.00560161  -0.000390557 -0.000292336 -0.00515304  -0.000501698 -0.000358538 -0.00453365  -0.000638709 -0.000496006 -0.00504222  -0.000723695 -0.000832674 -0.00557344  -0.000506451 0.000105771 -0.00569902  -0.000640531 -0.000332794 -0.00550295  -0.000824425 -0.000380554 -0.00532112  -0.000990799 -0.000575407 -0.00557488  -0.00109602 -0.000934374 -0.00567164  
            </DataArray>
            <DataArray type="Float64" Name="Traction" NumberOfComponents="3" format="ascii">
               0.0395114 0.0407283 -0.0969647  0.0108508 0.0461916 -0.0969647  -0.0101154 0.0471327 -0.0969647  -0.0330007 0.0478131 -0.0969647  -0.0590527 0.0510815 -0.0969647  0.0466096 0.0123815 -0.0969647  0.0182379 0.019511 -0.0969647  -8.19401e-05 0.0193005 -0.0969647  -0.0248133 0.0199574 -0.0969647  -0.0521448 0.026545 -0.0969647  0.0477095 -0.00894646 -0.0969647  0.0176183 0.000990855 -0.0969647  0.000117553 0.00133181 -0.0969647  -0.0242448 -0.000141959 -0.0969647  -0.0509879 0.0066275 -0.0969647  0.0483403 -0.0323487 -0.0969647  0.0189949 -0.0240704 -0.0969647  -0.00107231 -0.0233474 -0.0969647  -0.0246648 -0.0238766 -0.0969647  -0.0469457 -0.0180754 -0.0969647  0.0519643 -0.0594304 -0.0969647  0.0261076 -0.0513647 -0.0969647  0.00614497 -0.0495588 -0.0969647  -0.0186025 -0.0462465 -0.0969647  -0.0380479 -0.0374465 -0.0969647  
            </DataArray>
         </PointData> 
      </Piece>
   </UnstructuredGrid> 
</VTKFile>
