<?xml version="1.0"?>
<VTKFile type="UnstructuredGrid" version="0.1" byte_order="LittleEndian">
   <UnstructuredGrid>
      <Piece NumberOfPoints="25" NumberOfCells="0" > 
         <Points> 
            <DataArray type="Float64" Name="Position" NumberOfComponents="3" format="ascii"> 
               0  0  15  
               0.75  0  15  
               1.5  0  15  
               2.25  0  15  
               3  0  15  
               0  0.75  15  
               0.75  0.75  15  
               1.5  0.75  15  
               2.25  0.75  15  
               3  0.75  15  
               0  1.5  15  
               0.75  1.5  15  
               1.5  1.5  15  
               2.25  1.5  15  
               3  1.5  15  
               0  2.25  15  
               0.75  2.25  15  
               1.5  2.25  15  
               2.25  2.25  15  
               3  2.25  15  
               0  3  15  
               0.75  3  15  
               1.5  3  15  
               2.25  3  15  
               3  3  15  
            </DataArray>
         </Points> 

         <Cells>
            <DataArray type="Int32" Name="connectivity" NumberOfComponents="1" format="ascii">
               
            </DataArray> 
            <DataArray type="Int32" Name="offsets" NumberOfComponents="1" format="ascii">
               
            </DataArray>
            <DataArray type="UInt8"  Name="types" NumberOfComponents="1" format="ascii">
               
            </DataArray>
         </Cells>
         <PointData Scalars="Rank " Vectors="Displacement Velocity Traction ">
            <DataArray type="UInt32" Name="Rank" NumberOfComponents="1" format="ascii">
               0 0 0 0 0 0 0 0 0 0 0 0 0 0 0 0 0 0 0 0 0 0 0 0 0 
            </DataArray>
            <DataArray type="Float64" Name="Displacement" NumberOfComponents="3" format="ascii">
               0.000675223 0.000598986 -0.000303536  0.00064365 0.000102706 -0.000290726  0.000520759 -2.13065e-05 -0.000271367  0.000377164 -5.78301e-05 -0.000286945  0.000324498 -0.000356431 -0.000298751  0.000112762 0.000568923 -0.000291737  0.000115532 0.000103802 -0.000249453  5.13371e-05 1.41595e-05 -0.000219412  -7.14669e-06 -5.87309e-05 -0.000257977  3.73724e-06 -0.000406938 -0.000279677  -3.46445e-05 0.000454629 -0.000273343  3.32163e-06 2.77596e-05 -0.000219834  -5.6065e-05 -5.95685e-05 -0.000169488  -0.000105872 -0.000151101 -0.000220682  -6.24217e-05 -0.00053864 -0.00026871  -9.01409e-05 0.000318618 -0.000289103  -8.21324e-05 -4.83098e-05 -0.000258115  -0.000149027 -0.000127001 -0.000220673  -0.000212607 -0.000241581 -0.000251146  -0.000208907 -0.000643135 -0.000287068  -0.000362566 0.000267975 -0.000303096  -0.000405345 -5.07143e-05 -0.000281045  -0.000515016 -0.000102811 -0.000270025  -0.000595145 -0.000255028 -0.000288534  -0.000609857 -0.000667763 -0.000297671  
            </DataArray>
            <DataArray type="Float64" Name="Velocity" NumberOfComponents="3" format="ascii">
               0.000340683 0.000397208 -0.000367899  0.000315079 3.64227e-05 -0.000364459  0.000223831 -8.17033e-05 -0.000347365  0.000117795 -8.42247e-05 -0.000364189  7.71476e-05 -0.000297357 -0.000367586  -3.3019e-05 0.00037074 -0.00036311  -3.46519e-05 3.41796e-05 -0.000329034  -0.00010262 -4.50562e-05 -0.000302262  -0.000168802 -7.91685e-05 -0.000342241  -0.000165926 -0.000339514 -0.000354843  -0.000142697 0.000281173 -0.000346972  -0.000108011 -3.42294e-05 -0.000302765  -0.000149623 -8.4981e-05 -0.000253499  -0.000189742 -0.000145384 -0.000303426  -0.000155019 -0.000444427 -0.000344101  -0.000145571 0.000176634 -0.000364897  -0.000142221 -9.83191e-05 -0.000343095  -0.00021111 -0.00012232 -0.000303797  -0.000280746 -0.000214066 -0.000331538  -0.000282673 -0.000531776 -0.000360962  -0.000368963 0.000135767 -0.000368371  -0.000410296 -9.36412e-05 -0.00035508  -0.000514599 -8.5539e-05 -0.000344189  -0.000601052 -0.000216704 -0.000360562  -0.000624925 -0.00055727 -0.000363129  
            </DataArray>
            <DataArray type="Float64" Name="Traction" NumberOfComponents="3" format="ascii">
               0.0109543 0.0114231 -0.0280123  0.000918128 0.0131586 -0.0280123  -0.00266715 0.0137233 -0.0280123  -0.0062118 0.0142222 -0.0280123  -0.0163825 0.0150781 -0.0280123  0.0138355 0.00154333 -0.0280123  0.00333156 0.00426067 -0.0280123  -0.000666554 0.0048488 -0.0280123  -0.00481265 0.0042711 -0.0280123  -0.0141746 0.00546434 -0.0280123  0.0139965 -0.00249433 -0.0280123  0.00327381 -0.00013465 -0.0280123  -0.00103881 -0.000432643 -0.0280123  -0.00580584 -0.000808074 -0.0280123  -0.0150402 0.00118218 -0.0280123  0.0140019 -0.00615787 -0.0280123  0.00295836 -0.0048303 -0.0280123  -0.00132598 -0.00607747 -0.0280123  -0.00591237 -0.00630089 -0.0280123  -0.0119166 -0.00500792 -0.0280123  0.0148862 -0.0171351 -0.0280123  0.00426734 -0.0140011 -0.0280123  0.000968893 -0.0144215 -0.0280123  -0.00449197 -0.0124383 -0.0280123  -0.00728853 -0.00778965 -0.0280123  
            </DataArray>
         </PointData> 
      </Piece>
   </UnstructuredGrid> 
</VTKFile>
