<?xml version="1.0"?>
<VTKFile type="UnstructuredGrid" version="0.1" byte_order="LittleEndian">
   <UnstructuredGrid>
      <Piece NumberOfPoints="25" NumberOfCells="0" > 
         <Points> 
            <DataArray type="Float64" Name="Position" NumberOfComponents="3" format="ascii"> 
               0  0  15  
               0.75  0  15  
               1.5  0  15  
               2.25  0  15  
               3  0  15  
               0  0.75  15  
               0.75  0.75  15  
               1.5  0.75  15  
               2.25  0.75  15  
               3  0.75  15  
               0  1.5  15  
               0.75  1.5  15  
               1.5  1.5  15  
               2.25  1.5  15  
               3  1.5  15  
               0  2.25  15  
               0.75  2.25  15  
               1.5  2.25  15  
               2.25  2.25  15  
               3  2.25  15  
               0  3  15  
               0.75  3  15  
               1.5  3  15  
               2.25  3  15  
               3  3  15  
            </DataArray>
         </Points> 

         <Cells>
            <DataArray type="Int32" Name="connectivity" NumberOfComponents="1" format="ascii">
               
            </DataArray> 
            <DataArray type="Int32" Name="offsets" NumberOfComponents="1" format="ascii">
               
            </DataArray>
            <DataArray type="UInt8"  Name="types" NumberOfComponents="1" format="ascii">
               
            </DataArray>
         </Cells>
         <PointData Scalars="Rank " Vectors="Displacement Velocity Traction ">
            <DataArray type="UInt32" Name="Rank" NumberOfComponents="1" format="ascii">
               0 0 0 0 0 0 0 0 0 0 0 0 0 0 0 0 0 0 0 0 0 0 0 0 0 
            </DataArray>
            <DataArray type="Float64" Name="Displacement" NumberOfComponents="3" format="ascii">
               0.00138144 0.00148036 -0.00174947  0.00128329 0.000150359 -0.00174896  0.000949038 -0.00027822 -0.00168388  0.000568025 -0.000292221 -0.00175712  0.000422022 -0.00106217 -0.0017651  -2.94948e-05 0.00138237 -0.00174124  -3.81494e-05 0.000138536 -0.00160496  -0.000273791 -0.000160489 -0.00149241  -0.000496649 -0.000288115 -0.00166821  -0.000481533 -0.00122085 -0.00171964  -0.000453023 0.00105754 -0.00167704  -0.000335256 -0.000109781 -0.00149304  -0.000489002 -0.000323956 -0.00127814  -0.000634903 -0.000538751 -0.00149933  -0.000513997 -0.00160549 -0.00167882  -0.000492686 0.000683809 -0.00175274  -0.000482605 -0.000344892 -0.00167012  -0.000716902 -0.000477626 -0.00149994  -0.000954489 -0.00079269 -0.00161861  -0.000965162 -0.00191971 -0.00174503  -0.0012823 0.000537758 -0.00175257  -0.00143211 -0.000337723 -0.00171473  -0.00179712 -0.000366651 -0.0016726  -0.00209232 -0.000814801 -0.00173768  -0.00217435 -0.00200962 -0.00174044  
            </DataArray>
            <DataArray type="Float64" Name="Velocity" NumberOfComponents="3" format="ascii">
               0.000478666 0.000625281 -0.00168996  0.000423461 2.33807e-05 -0.00170348  0.000271154 -0.00021331 -0.00165667  0.000107532 -0.000193794 -0.00172179  3.96561e-05 -0.000520934 -0.00171369  -0.000123814 0.000568812 -0.00169601  -0.000141031 4.46354e-06 -0.00159106  -0.000274201 -0.000161531 -0.00149908  -0.000398566 -0.000198357 -0.00165497  -0.000398983 -0.000608944 -0.00168936  -0.00034155 0.000414634 -0.00164681  -0.000289342 -0.000130827 -0.00149821  -0.000358781 -0.000229872 -0.00131218  -0.000432082 -0.000317641 -0.00150724  -0.000381334 -0.000799732 -0.00165732  -0.000328253 0.000248692 -0.00171224  -0.000333439 -0.000253254 -0.00165496  -0.000457998 -0.000297315 -0.00150701  -0.000590986 -0.00044184 -0.00160683  -0.000610527 -0.000958862 -0.00170739  -0.000686972 0.000179027 -0.0016915  -0.000774497 -0.000250335 -0.00168075  -0.000967492 -0.000239674 -0.00164789  -0.001132 -0.000455181 -0.00169828  -0.00119039 -0.00101372 -0.00168827  
            </DataArray>
            <DataArray type="Float64" Name="Traction" NumberOfComponents="3" format="ascii">
               0.0274055 0.0284812 -0.0759951  0.00608223 0.0332573 -0.0759951  -0.00741117 0.0345347 -0.0759951  -0.0211903 0.0345407 -0.0759951  -0.0414761 0.0370422 -0.0759951  0.0338568 0.0074781 -0.0759951  0.0117943 0.0130742 -0.0759951  -0.00132281 0.0135433 -0.0759951  -0.0164906 0.0132256 -0.0759951  -0.0370332 0.0174879 -0.0759951  0.035039 -0.00642441 -0.0759951  0.0117314 -0.000262404 -0.0759951  -0.00166171 -0.000487207 -0.0759951  -0.017366 -0.00116221 -0.0759951  -0.0377756 0.0038913 -0.0759951  0.0347309 -0.0206071 -0.0759951  0.0119213 -0.0158293 -0.0759951  -0.00212089 -0.0166905 -0.0759951  -0.017353 -0.016867 -0.0759951  -0.0334369 -0.0126868 -0.0759951  0.0373397 -0.0419483 -0.0759951  0.0164921 -0.0362727 -0.0759951  0.0033785 -0.036373 -0.0759951  -0.0127862 -0.0330754 -0.0759951  -0.0250884 -0.0249968 -0.0759951  
            </DataArray>
         </PointData> 
      </Piece>
   </UnstructuredGrid> 
</VTKFile>
