<?xml version="1.0"?>
<VTKFile type="UnstructuredGrid" version="0.1" byte_order="LittleEndian">
   <UnstructuredGrid>
      <Piece NumberOfPoints="25" NumberOfCells="0" > 
         <Points> 
            <DataArray type="Float64" Name="Position" NumberOfComponents="3" format="ascii"> 
               0  0  15  
               0.75  0  15  
               1.5  0  15  
               2.25  0  15  
               3  0  15  
               0  0.75  15  
               0.75  0.75  15  
               1.5  0.75  15  
               2.25  0.75  15  
               3  0.75  15  
               0  1.5  15  
               0.75  1.5  15  
               1.5  1.5  15  
               2.25  1.5  15  
               3  1.5  15  
               0  2.25  15  
               0.75  2.25  15  
               1.5  2.25  15  
               2.25  2.25  15  
               3  2.25  15  
               0  3  15  
               0.75  3  15  
               1.5  3  15  
               2.25  3  15  
               3  3  15  
            </DataArray>
         </Points> 

         <Cells>
            <DataArray type="Int32" Name="connectivity" NumberOfComponents="1" format="ascii">
               
            </DataArray> 
            <DataArray type="Int32" Name="offsets" NumberOfComponents="1" format="ascii">
               
            </DataArray>
            <DataArray type="UInt8"  Name="types" NumberOfComponents="1" format="ascii">
               
            </DataArray>
         </Cells>
         <PointData Scalars="Rank " Vectors="Displacement Velocity Traction ">
            <DataArray type="UInt32" Name="Rank" NumberOfComponents="1" format="ascii">
               0 0 0 0 0 0 0 0 0 0 0 0 0 0 0 0 0 0 0 0 0 0 0 0 0 
            </DataArray>
            <DataArray type="Float64" Name="Displacement" NumberOfComponents="3" format="ascii">
               0.00162584 0.00180469 -0.00289197  0.00149619 0.000163427 -0.00289523  0.00108283 -0.000391043 -0.00279732  0.000619603 -0.000398287 -0.00291499  0.00043776 -0.00133419 -0.00291919  -9.47349e-05 0.0016745 -0.00288435  -0.000116354 0.000137649 -0.00267201  -0.000424618 -0.000250211 -0.00249557  -0.000713902 -0.000399857 -0.00277765  -0.000700793 -0.0015424 -0.00285549  -0.000635175 0.00126903 -0.00278541  -0.000493644 -0.000184686 -0.00249545  -0.00068558 -0.000451841 -0.00215366  -0.000872086 -0.000714429 -0.00250852  -0.000727489 -0.00202904 -0.00279204  -0.000671292 0.000811401 -0.00290506  -0.000666879 -0.000485733 -0.00277899  -0.000967352 -0.000643664 -0.00250874  -0.00127664 -0.00103579 -0.00269679  -0.00130105 -0.00242901 -0.00289314  -0.00164076 0.000628571 -0.00289442  -0.00183993 -0.000479048 -0.00284568  -0.00230815 -0.000505635 -0.00278078  -0.00269195 -0.00106838 -0.00288145  -0.00280781 -0.00255078 -0.00287959  
            </DataArray>
            <DataArray type="Float64" Name="Velocity" NumberOfComponents="3" format="ascii">
               0.000450958 0.000609764 -0.00280567  0.000384007 2.75925e-05 -0.00280062  0.000235438 -0.000214969 -0.00271447  8.78247e-05 -0.000211233 -0.00282629  1.82255e-05 -0.000512455 -0.00282424  -0.000124192 0.000541412 -0.00279665  -0.000158597 -8.88472e-06 -0.00259241  -0.000302239 -0.00018095 -0.00242535  -0.000430926 -0.000230297 -0.00269362  -0.000439598 -0.000615851 -0.00277204  -0.000351447 0.000388828 -0.00270558  -0.000315382 -0.000155646 -0.00242338  -0.000392146 -0.000258606 -0.0020996  -0.000474475 -0.000354378 -0.00244092  -0.000436994 -0.000814261 -0.00271195  -0.000353378 0.000236991 -0.00281509  -0.000371982 -0.000284225 -0.0026913  -0.000499558 -0.000337366 -0.00243962  -0.00063957 -0.000486891 -0.00262028  -0.000674436 -0.000982514 -0.0028027  -0.000676201 0.000165507 -0.00280089  -0.000779495 -0.000290305 -0.00276235  -0.000980538 -0.000293887 -0.00270271  -0.00115438 -0.000515612 -0.00279587  -0.00122709 -0.00105136 -0.00279236  
            </DataArray>
            <DataArray type="Float64" Name="Traction" NumberOfComponents="3" format="ascii">
               0.0336945 0.0348725 -0.0915888  0.00842417 0.0404521 -0.0915888  -0.00894476 0.0418501 -0.0915888  -0.02707 0.041792 -0.0915888  -0.050582 0.0446046 -0.0915888  0.0409841 0.00993361 -0.0915888  0.0152066 0.0165097 -0.0915888  -0.00109862 0.0168495 -0.0915888  -0.0208515 0.0167598 -0.0915888  -0.0451739 0.0220942 -0.0915888  0.042408 -0.00781245 -0.0915888  0.0150701 1.72848e-05 -0.0915888  -0.00127333 -3.16628e-05 -0.0915888  -0.0213075 -0.000945947 -0.0915888  -0.0454451 0.00510576 -0.0915888  0.0421646 -0.0264129 -0.0915888  0.0155966 -0.0201033 -0.0915888  -0.00193433 -0.0204721 -0.0915888  -0.0213289 -0.0206562 -0.0915888  -0.0409435 -0.0154622 -0.0915888  0.0452057 -0.0510004 -0.0915888  0.0213566 -0.0443675 -0.0915888  0.00458393 -0.0439842 -0.0915888  -0.0157859 -0.0403917 -0.0915888  -0.0318166 -0.0314696 -0.0915888  
            </DataArray>
         </PointData> 
      </Piece>
   </UnstructuredGrid> 
</VTKFile>
