<?xml version="1.0"?>
<VTKFile type="UnstructuredGrid" version="0.1" byte_order="LittleEndian">
   <UnstructuredGrid>
      <Piece NumberOfPoints="25" NumberOfCells="0" > 
         <Points> 
            <DataArray type="Float64" Name="Position" NumberOfComponents="3" format="ascii"> 
               0  0  20  
               0.75  0  20  
               1.5  0  20  
               2.25  0  20  
               3  0  20  
               0  0.75  20  
               0.75  0.75  20  
               1.5  0.75  20  
               2.25  0.75  20  
               3  0.75  20  
               0  1.5  20  
               0.75  1.5  20  
               1.5  1.5  20  
               2.25  1.5  20  
               3  1.5  20  
               0  2.25  20  
               0.75  2.25  20  
               1.5  2.25  20  
               2.25  2.25  20  
               3  2.25  20  
               0  3  20  
               0.75  3  20  
               1.5  3  20  
               2.25  3  20  
               3  3  20  
            </DataArray>
         </Points> 

         <Cells>
            <DataArray type="Int32" Name="connectivity" NumberOfComponents="1" format="ascii">
               
            </DataArray> 
            <DataArray type="Int32" Name="offsets" NumberOfComponents="1" format="ascii">
               
            </DataArray>
            <DataArray type="UInt8"  Name="types" NumberOfComponents="1" format="ascii">
               
            </DataArray>
         </Cells>
         <PointData Scalars="Rank " Vectors="Displacement Velocity Traction ">
            <DataArray type="UInt32" Name="Rank" NumberOfComponents="1" format="ascii">
               0 0 0 0 0 0 0 0 0 0 0 0 0 0 0 0 0 0 0 0 0 0 0 0 0 
            </DataArray>
            <DataArray type="Float64" Name="Displacement" NumberOfComponents="3" format="ascii">
               0.000560766 0.000567033 -0.00260018  2.82224e-05 0.000957364 -0.00260327  -0.000315751 0.00112968 -0.00251381  -0.000301596 0.000821301 -0.00261917  -0.000628478 0.00104922 -0.00262472  0.000940294 3.24516e-05 -0.00259323  0.000293855 0.00030686 -0.00239971  -0.000111959 0.00048348 -0.00224035  -0.000324767 0.000327254 -0.00249523  -0.000806663 0.000554458 -0.00256588  0.00111173 -0.000306714 -0.00250328  0.000469353 -0.000104918 -0.00224043  -1.39811e-05 -5.95857e-06 -0.00193165  -0.000466554 7.51975e-05 -0.00225201  -0.00110203 0.000301325 -0.00250962  0.000803941 -0.000281563 -0.00261074  0.000314195 -0.000312176 -0.00249673  6.67689e-05 -0.00045389 -0.00225236  -0.000300738 -0.000287359 -0.00242249  -0.000941542 -6.52235e-05 -0.00260243  0.00103041 -0.000604758 -0.00260305  0.000537625 -0.000787824 -0.00255742  0.000293155 -0.00108475 -0.00249979  -7.02234e-05 -0.000924222 -0.00259188  -0.00059867 -0.000590877 -0.00259164  
            </DataArray>
            <DataArray type="Float64" Name="Velocity" NumberOfComponents="3" format="ascii">
               0.000536974 0.000528106 -0.00250286  4.83595e-05 0.00088019 -0.00250513  -0.000257642 0.00104028 -0.00243181  -0.000258725 0.000762125 -0.00252849  -0.000568992 0.000946947 -0.00252293  0.000876049 3.88292e-05 -0.00250024  0.000279346 0.000280795 -0.00232632  -8.65181e-05 0.000438511 -0.00218447  -0.000285753 0.00029997 -0.00241864  -0.000732446 0.000495266 -0.00248065  0.00103205 -0.000262205 -0.00242254  0.000433866 -9.12435e-05 -0.00218274  -2.85399e-06 -5.23875e-06 -0.001903  -0.000417732 6.6769e-05 -0.00219837  -0.0010097 0.000264763 -0.00243116  0.000749384 -0.000249761 -0.00251752  0.00029383 -0.000283556 -0.00241685  6.76216e-05 -0.000413754 -0.00219733  -0.000268367 -0.000263094 -0.00235177  -0.000863394 -6.73223e-05 -0.00250938  0.000931378 -0.000552319 -0.00249932  0.000484109 -0.000722472 -0.00247106  0.000264522 -0.00100034 -0.00242174  -6.09542e-05 -0.000852106 -0.00250189  -0.000547163 -0.000552328 -0.00249532  
            </DataArray>
            <DataArray type="Float64" Name="Traction" NumberOfComponents="3" format="ascii">
               -0.00340324 -0.00344392 -0.0296179  -0.000862825 -0.00655656 -0.0296179  0.0021127 -0.00761805 -0.0296179  0.00161011 -0.0049069 -0.0296179  0.0029906 -0.00578675 -0.0296179  -0.00645365 -0.000843422 -0.0296179  -0.00264633 -0.0026758 -0.0296179  0.00227722 -0.00419346 -0.0296179  0.00256399 -0.00274152 -0.0296179  0.00435042 -0.0029783 -0.0296179  -0.00752342 0.00217773 -0.0296179  -0.00417267 0.00234291 -0.0296179  0.00174421 0.00181115 -0.0296179  0.00397053 0.000468411 -0.0296179  0.00721955 -0.000521489 -0.0296179  -0.00482329 0.00153436 -0.0296179  -0.00273838 0.00254236 -0.0296179  0.000393133 0.00395612 -0.0296179  0.00252191 0.00251534 -0.0296179  0.00618419 0.00101385 -0.0296179  -0.0056788 0.00281719 -0.0296179  -0.00295553 0.00423686 -0.0296179  -0.000611025 0.00712602 -0.0296179  0.000961311 0.00610177 -0.0296179  0.00346027 0.00344075 -0.0296179  
            </DataArray>
         </PointData> 
      </Piece>
   </UnstructuredGrid> 
</VTKFile>
