<?xml version="1.0"?>
<VTKFile type="UnstructuredGrid" version="0.1" byte_order="LittleEndian">
   <UnstructuredGrid>
      <Piece NumberOfPoints="25" NumberOfCells="0" > 
         <Points> 
            <DataArray type="Float64" Name="Position" NumberOfComponents="3" format="ascii"> 
               0  0  20  
               0.75  0  20  
               1.5  0  20  
               2.25  0  20  
               3  0  20  
               0  0.75  20  
               0.75  0.75  20  
               1.5  0.75  20  
               2.25  0.75  20  
               3  0.75  20  
               0  1.5  20  
               0.75  1.5  20  
               1.5  1.5  20  
               2.25  1.5  20  
               3  1.5  20  
               0  2.25  20  
               0.75  2.25  20  
               1.5  2.25  20  
               2.25  2.25  20  
               3  2.25  20  
               0  3  20  
               0.75  3  20  
               1.5  3  20  
               2.25  3  20  
               3  3  20  
            </DataArray>
         </Points> 

         <Cells>
            <DataArray type="Int32" Name="connectivity" NumberOfComponents="1" format="ascii">
               
            </DataArray> 
            <DataArray type="Int32" Name="offsets" NumberOfComponents="1" format="ascii">
               
            </DataArray>
            <DataArray type="UInt8"  Name="types" NumberOfComponents="1" format="ascii">
               
            </DataArray>
         </Cells>
         <PointData Scalars="Rank " Vectors="Displacement Velocity Traction ">
            <DataArray type="UInt32" Name="Rank" NumberOfComponents="1" format="ascii">
               0 0 0 0 0 0 0 0 0 0 0 0 0 0 0 0 0 0 0 0 0 0 0 0 0 
            </DataArray>
            <DataArray type="Float64" Name="Displacement" NumberOfComponents="3" format="ascii">
               0.0067719 0.00674693 -0.027076  0.000218025 0.0115265 -0.0256709  -0.0021311 0.014624 -0.0240268  -0.00208369 0.0104011 -0.0257278  -0.00737365 0.010181 -0.0271288  0.011546 0.000195561 -0.0256779  0.00283801 0.00282167 -0.0215394  -0.00058633 0.00468182 -0.0179384  -0.00263741 0.00275254 -0.0220244  -0.0101689 0.00390188 -0.0254285  0.0146348 -0.00215266 -0.0240235  0.00469351 -0.000604718 -0.0179336  0.000156684 0.000141005 -0.0120387  -0.00430914 0.000533854 -0.0180252  -0.014247 0.00222517 -0.0239836  0.0103982 -0.00209562 -0.0257145  0.00275751 -0.00265134 -0.0220157  0.000545374 -0.00431979 -0.018021  -0.00262104 -0.00262855 -0.0216947  -0.011284 -0.000364897 -0.0256272  0.0101757 -0.00737194 -0.027109  0.00390378 -0.0101752 -0.0254184  0.00223414 -0.0142538 -0.0239784  -0.000349158 -0.0112863 -0.0256278  -0.00678321 -0.00680023 -0.0269334  
            </DataArray>
            <DataArray type="Float64" Name="Velocity" NumberOfComponents="3" format="ascii">
               0.0201283 0.0201105 -0.0742172  0.00029479 0.034729 -0.0683047  -0.00410041 0.0459806 -0.0626267  -0.00417634 0.0324419 -0.0686391  -0.0221975 0.0270163 -0.0747127  0.0347807 0.000283058 -0.0683328  0.00711223 0.00707488 -0.0536308  -0.000985838 0.012249 -0.039942  -0.00646621 0.00657084 -0.0540701  -0.0320974 0.00742703 -0.0683181  0.0460301 -0.00412783 -0.0626521  0.0122882 -0.00100701 -0.0399399  0.000568852 0.000545299 -0.018204  -0.0113438 0.000992902 -0.0400501  -0.0452234 0.00434891 -0.0625837  0.0324828 -0.00423169 -0.0686537  0.00660252 -0.00650285 -0.0540618  0.00101417 -0.011379 -0.0400469  -0.00667227 -0.00670609 -0.0538471  -0.034323 -0.000626238 -0.0682182  0.0270631 -0.0222561 -0.0747602  0.00746891 -0.0321482 -0.0683352  0.00436745 -0.0452698 -0.0626065  -0.000616996 -0.0343657 -0.0682428  -0.0201338 -0.0201479 -0.0740068  
            </DataArray>
            <DataArray type="Float64" Name="Traction" NumberOfComponents="3" format="ascii">
               -0.044735 -0.0448511 -1.4327  -0.00861974 -0.0870298 -1.4327  0.0205105 -0.112615 -1.4327  0.0183324 -0.0756928 -1.4327  0.0468679 -0.0643416 -1.4327  -0.0869342 -0.00881422 -1.4327  -0.0342851 -0.0344517 -1.4327  0.0258127 -0.0550702 -1.4327  0.033293 -0.0335962 -1.4327  0.072719 -0.0273717 -1.4327  -0.112503 0.0202643 -1.4327  -0.0549282 0.0256172 -1.4327  0.0298678 0.0297063 -1.4327  0.0536593 0.0151478 -1.4327  0.110254 -0.00177809 -1.4327  -0.0754696 0.0180526 -1.4327  -0.0334296 0.033078 -1.4327  0.0152971 0.0534683 -1.4327  0.0338165 0.0336582 -1.4327  0.0848033 0.0103913 -1.4327  -0.0640849 0.0465504 -1.4327  -0.0272029 0.0724833 -1.4327  -0.0016419 0.110061 -1.4327  0.010458 0.0846502 -1.4327  0.0451788 0.0451707 -1.4327  
            </DataArray>
         </PointData> 
      </Piece>
   </UnstructuredGrid> 
</VTKFile>
