<?xml version="1.0"?>
<VTKFile type="UnstructuredGrid" version="0.1" byte_order="LittleEndian">
   <UnstructuredGrid>
      <Piece NumberOfPoints="25" NumberOfCells="0" > 
         <Points> 
            <DataArray type="Float64" Name="Position" NumberOfComponents="3" format="ascii"> 
               0  0  20  
               0.75  0  20  
               1.5  0  20  
               2.25  0  20  
               3  0  20  
               0  0.75  20  
               0.75  0.75  20  
               1.5  0.75  20  
               2.25  0.75  20  
               3  0.75  20  
               0  1.5  20  
               0.75  1.5  20  
               1.5  1.5  20  
               2.25  1.5  20  
               3  1.5  20  
               0  2.25  20  
               0.75  2.25  20  
               1.5  2.25  20  
               2.25  2.25  20  
               3  2.25  20  
               0  3  20  
               0.75  3  20  
               1.5  3  20  
               2.25  3  20  
               3  3  20  
            </DataArray>
         </Points> 

         <Cells>
            <DataArray type="Int32" Name="connectivity" NumberOfComponents="1" format="ascii">
               
            </DataArray> 
            <DataArray type="Int32" Name="offsets" NumberOfComponents="1" format="ascii">
               
            </DataArray>
            <DataArray type="UInt8"  Name="types" NumberOfComponents="1" format="ascii">
               
            </DataArray>
         </Cells>
         <PointData Scalars="Rank " Vectors="Displacement Velocity Traction ">
            <DataArray type="UInt32" Name="Rank" NumberOfComponents="1" format="ascii">
               0 0 0 0 0 0 0 0 0 0 0 0 0 0 0 0 0 0 0 0 0 0 0 0 0 
            </DataArray>
            <DataArray type="Float64" Name="Displacement" NumberOfComponents="3" format="ascii">
               6.75774e-07 7.5171e-07 -4.04146e-06  2.43761e-07 9.31941e-07 -4.55968e-06  -5.746e-07 7.83964e-07 -4.78627e-06  -5.65624e-07 7.98076e-07 -4.78972e-06  -5.20431e-07 1.63323e-06 -4.03503e-06  8.02334e-07 2.87335e-07 -4.52987e-06  5.03873e-07 5.62443e-07 -5.02474e-06  -3.54432e-07 7.09069e-07 -5.38438e-06  -6.96506e-07 7.53293e-07 -5.3963e-06  -6.01725e-07 1.19286e-06 -4.50964e-06  6.91767e-07 -5.08928e-07 -4.75627e-06  6.70849e-07 -2.98173e-07 -5.39178e-06  -1.32682e-07 -1.15865e-07 -5.6061e-06  -7.52217e-07 1.97108e-07 -5.42415e-06  -6.53323e-07 5.25136e-07 -4.69048e-06  7.27693e-07 -5.5276e-07 -4.75083e-06  7.13231e-07 -6.83258e-07 -5.39833e-06  2.01017e-07 -7.47798e-07 -5.42096e-06  -5.33432e-07 -5.27247e-07 -5.09137e-06  -8.25113e-07 -2.88911e-07 -4.51852e-06  1.55692e-06 -5.3762e-07 -4.02017e-06  1.15254e-06 -6.15629e-07 -4.53746e-06  5.20104e-07 -6.92045e-07 -4.71636e-06  -3.4388e-07 -8.6834e-07 -4.531e-06  -8.36618e-07 -7.87301e-07 -3.98817e-06  
            </DataArray>
            <DataArray type="Float64" Name="Velocity" NumberOfComponents="3" format="ascii">
               -9.82274e-07 -8.98852e-07 1.81046e-06  4.65735e-07 -2.04449e-06 9.86109e-07  8.37045e-07 -2.51833e-06 3.53441e-07  6.55754e-07 -1.57357e-06 5.56642e-07  1.7468e-06 -1.68884e-06 1.7779e-06  -2.23384e-06 5.20406e-07 1.04919e-06  -4.79459e-07 -3.89403e-07 -3.79193e-07  -9.23197e-08 -8.03517e-07 -1.19151e-06  1.85514e-07 -2.34495e-07 -5.95272e-07  1.66722e-06 -6.33672e-07 6.80441e-07  -2.63599e-06 9.23121e-07 4.00468e-07  -8.73101e-07 -3.34223e-08 -1.2028e-06  -2.30723e-07 -1.80047e-07 -2.18474e-06  5.3152e-07 -8.39706e-08 -1.20173e-06  2.40193e-06 -8.64916e-07 4.13645e-07  -1.64503e-06 6.8969e-07 5.99383e-07  -2.99199e-07 2.31013e-07 -5.98837e-07  -1.32332e-07 5.92071e-07 -1.2134e-06  2.76919e-07 3.55727e-07 -3.98533e-07  1.9648e-06 -4.55591e-07 9.87242e-07  -1.79725e-06 1.74646e-06 1.80263e-06  -7.34027e-07 1.69512e-06 6.66594e-07  -9.52485e-07 2.45159e-06 4.04546e-07  -5.81595e-07 2.05424e-06 1.01472e-06  7.73858e-07 9.27956e-07 1.79474e-06  
            </DataArray>
            <DataArray type="Float64" Name="Traction" NumberOfComponents="3" format="ascii">
               -3.98344e-06 -2.72953e-06 1.39484e-05  -3.03156e-06 -2.3953e-06 1.39484e-05  2.34105e-06 -6.27476e-07 1.39484e-05  -6.96393e-07 4.41773e-08 1.39484e-05  -4.57905e-06 -4.93459e-06 1.39484e-05  -1.9408e-06 -1.20666e-06 1.39484e-05  -1.09017e-06 -9.04415e-07 1.39484e-05  3.87062e-06 -2.2201e-06 1.39484e-05  1.3778e-06 -2.60241e-06 1.39484e-05  -3.64358e-06 -3.75481e-06 1.39484e-05  -1.11775e-06 3.57065e-06 1.39484e-05  -2.85057e-06 3.90212e-06 1.39484e-05  8.72585e-07 1.15159e-06 1.39484e-05  2.50057e-06 -2.13428e-06 1.39484e-05  -3.62203e-07 -1.37024e-06 1.39484e-05  -1.247e-07 4.19804e-07 1.39484e-05  -3.0692e-06 1.66198e-06 1.39484e-05  -2.87926e-06 2.64087e-06 1.39484e-05  -1.36448e-07 7.62003e-07 1.39484e-05  4.02482e-07 9.23633e-07 1.39484e-05  -4.20752e-06 -3.19895e-06 1.39484e-05  -3.57619e-06 -3.01043e-06 1.39484e-05  -1.57396e-06 1.12954e-07 1.39484e-05  9.44385e-07 1.858e-06 1.39484e-05  1.2921e-06 1.51915e-06 1.39484e-05  
            </DataArray>
         </PointData> 
      </Piece>
   </UnstructuredGrid> 
</VTKFile>
