<?xml version="1.0"?>
<VTKFile type="UnstructuredGrid" version="0.1" byte_order="LittleEndian">
   <UnstructuredGrid>
      <Piece NumberOfPoints="25" NumberOfCells="0" > 
         <Points> 
            <DataArray type="Float64" Name="Position" NumberOfComponents="3" format="ascii"> 
               0  0  20  
               0.75  0  20  
               1.5  0  20  
               2.25  0  20  
               3  0  20  
               0  0.75  20  
               0.75  0.75  20  
               1.5  0.75  20  
               2.25  0.75  20  
               3  0.75  20  
               0  1.5  20  
               0.75  1.5  20  
               1.5  1.5  20  
               2.25  1.5  20  
               3  1.5  20  
               0  2.25  20  
               0.75  2.25  20  
               1.5  2.25  20  
               2.25  2.25  20  
               3  2.25  20  
               0  3  20  
               0.75  3  20  
               1.5  3  20  
               2.25  3  20  
               3  3  20  
            </DataArray>
         </Points> 

         <Cells>
            <DataArray type="Int32" Name="connectivity" NumberOfComponents="1" format="ascii">
               
            </DataArray> 
            <DataArray type="Int32" Name="offsets" NumberOfComponents="1" format="ascii">
               
            </DataArray>
            <DataArray type="UInt8"  Name="types" NumberOfComponents="1" format="ascii">
               
            </DataArray>
         </Cells>
         <PointData Scalars="Rank " Vectors="Displacement Velocity Traction ">
            <DataArray type="UInt32" Name="Rank" NumberOfComponents="1" format="ascii">
               0 0 0 0 0 0 0 0 0 0 0 0 0 0 0 0 0 0 0 0 0 0 0 0 0 
            </DataArray>
            <DataArray type="Float64" Name="Displacement" NumberOfComponents="3" format="ascii">
               -2.99671e-07 -1.91216e-07 -1.97004e-06  5.4952e-07 -8.76221e-07 -2.9732e-06  2.69521e-07 -1.23581e-06 -3.57957e-06  1.5943e-07 -5.91218e-07 -3.46778e-06  1.0221e-06 -1.36029e-07 -2.0032e-06  -1.12283e-06 6.15949e-07 -2.89423e-06  -2.60577e-08 9.23926e-08 -4.31866e-06  -3.30692e-07 -8.9948e-08 -5.12555e-06  -3.42065e-07 3.30718e-07 -4.74362e-06  7.91814e-07 3.50393e-07 -3.19498e-06  -1.41059e-06 3.87596e-07 -3.50761e-06  -1.84207e-07 -2.37797e-07 -5.13755e-06  -2.79231e-07 -2.14051e-07 -5.97455e-06  -1.68837e-07 8.18656e-08 -5.1642e-06  1.21112e-06 -3.01219e-07 -3.48954e-06  -7.20358e-07 2.02202e-07 -3.39526e-06  2.33196e-07 -2.88532e-07 -4.75015e-06  2.62944e-08 -9.44113e-08 -5.17369e-06  -1.89607e-07 -8.97086e-08 -4.37878e-06  8.38496e-07 -5.67611e-07 -2.96951e-06  -3.06249e-07 1.0205e-06 -1.95125e-06  2.08049e-07 8.25361e-07 -3.21773e-06  -3.99888e-07 1.25671e-06 -3.50094e-06  -7.32046e-07 9.10107e-07 -2.93554e-06  -2.07772e-08 1.62375e-07 -1.98882e-06  
            </DataArray>
            <DataArray type="Float64" Name="Velocity" NumberOfComponents="3" format="ascii">
               -2.15532e-06 -2.1555e-06 4.75034e-06  4.74962e-07 -3.69351e-06 4.08714e-06  1.83933e-06 -3.82029e-06 3.55821e-06  1.67076e-06 -2.82755e-06 3.71216e-06  3.14806e-06 -3.96178e-06 4.65352e-06  -3.8543e-06 4.7397e-07 4.1755e-06  -1.22183e-06 -1.13464e-06 2.7324e-06  1.84921e-07 -1.73632e-06 2.18576e-06  9.81004e-07 -1.14753e-06 2.81479e-06  2.73574e-06 -2.07381e-06 3.53595e-06  -3.95804e-06 1.9032e-06 3.64955e-06  -1.84e-06 2.3307e-07 2.18638e-06  -2.16047e-07 -1.1568e-07 1.23527e-06  1.3308e-06 -2.73876e-07 2.2002e-06  3.42959e-06 -1.72361e-06 3.45731e-06  -2.95047e-06 1.72776e-06 3.78253e-06  -1.2686e-06 1.06088e-06 2.80371e-06  -4.18015e-07 1.49927e-06 2.17336e-06  8.35107e-07 1.06509e-06 2.77761e-06  3.27891e-06 -3.81524e-07 3.94426e-06  -4.16563e-06 3.2032e-06 4.76357e-06  -2.31048e-06 2.86623e-06 3.57276e-06  -1.93784e-06 3.66294e-06 3.52632e-06  -6.0203e-07 3.56822e-06 4.077e-06  1.85431e-06 2.12362e-06 4.50628e-06  
            </DataArray>
            <DataArray type="Float64" Name="Traction" NumberOfComponents="3" format="ascii">
               2.31077e-06 3.26741e-06 4.21623e-05  -4.44995e-06 1.31436e-05 4.21623e-05  -2.81206e-06 1.57142e-05 4.21623e-05  -7.50787e-06 1.15877e-05 4.21623e-05  -1.88421e-05 1.08734e-05 4.21623e-05  1.47265e-05 -2.55989e-06 4.21623e-05  5.19657e-06 4.83139e-06 4.21623e-05  2.21144e-06 5.67928e-06 4.21623e-05  -3.59029e-06 2.29525e-06 4.21623e-05  -1.59226e-05 3.95219e-06 4.21623e-05  1.5508e-05 -1.71871e-06 4.21623e-05  4.9696e-06 2.0353e-06 4.21623e-05  -1.16412e-06 -4.56395e-07 4.21623e-05  -4.78434e-06 -2.38182e-06 4.21623e-05  -1.63584e-05 3.03776e-06 4.21623e-05  1.17572e-05 -6.68023e-06 4.21623e-05  1.8506e-06 -3.3098e-06 4.21623e-05  -3.82448e-06 -4.44376e-06 4.21623e-05  -5.96753e-06 -4.55508e-06 4.21623e-05  -1.46921e-05 1.62886e-06 4.21623e-05  1.16774e-05 -1.7771e-05 4.21623e-05  3.92337e-06 -1.51277e-05 4.21623e-05  1.88829e-06 -1.57299e-05 4.21623e-05  9.45351e-07 -1.29906e-05 4.21623e-05  -5.93381e-06 -5.51338e-06 4.21623e-05  
            </DataArray>
         </PointData> 
      </Piece>
   </UnstructuredGrid> 
</VTKFile>
