<?xml version="1.0"?>
<VTKFile type="UnstructuredGrid" version="0.1" byte_order="LittleEndian">
   <UnstructuredGrid>
      <Piece NumberOfPoints="25" NumberOfCells="0" > 
         <Points> 
            <DataArray type="Float64" Name="Position" NumberOfComponents="3" format="ascii"> 
               0  0  15  
               0.75  0  15  
               1.5  0  15  
               2.25  0  15  
               3  0  15  
               0  0.75  15  
               0.75  0.75  15  
               1.5  0.75  15  
               2.25  0.75  15  
               3  0.75  15  
               0  1.5  15  
               0.75  1.5  15  
               1.5  1.5  15  
               2.25  1.5  15  
               3  1.5  15  
               0  2.25  15  
               0.75  2.25  15  
               1.5  2.25  15  
               2.25  2.25  15  
               3  2.25  15  
               0  3  15  
               0.75  3  15  
               1.5  3  15  
               2.25  3  15  
               3  3  15  
            </DataArray>
         </Points> 

         <Cells>
            <DataArray type="Int32" Name="connectivity" NumberOfComponents="1" format="ascii">
               
            </DataArray> 
            <DataArray type="Int32" Name="offsets" NumberOfComponents="1" format="ascii">
               
            </DataArray>
            <DataArray type="UInt8"  Name="types" NumberOfComponents="1" format="ascii">
               
            </DataArray>
         </Cells>
         <PointData Scalars="Rank " Vectors="Displacement Velocity Traction ">
            <DataArray type="UInt32" Name="Rank" NumberOfComponents="1" format="ascii">
               0 0 0 0 0 0 0 0 0 0 0 0 0 0 0 0 0 0 0 0 0 0 0 0 0 
            </DataArray>
            <DataArray type="Float64" Name="Displacement" NumberOfComponents="3" format="ascii">
               0.0006994 0.00062729 -0.000330304  0.00066599 0.000105232 -0.000317281  0.000536579 -2.72674e-05 -0.000296699  0.000385414 -6.39101e-05 -0.000313493  0.000329845 -0.000377706 -0.000325525  0.000110255 0.00059533 -0.000318185  0.000112901 0.000106163 -0.000273472  4.38254e-05 1.08236e-05 -0.00024151  -1.94099e-05 -6.4452e-05 -0.000282961  -8.32283e-06 -0.000431238 -0.000305551  -4.50003e-05 0.000474632 -0.000298636  -4.5498e-06 2.52144e-05 -0.000241966  -6.6906e-05 -6.57434e-05 -0.000188069  -0.000119585 -0.000161556 -0.000242863  -7.36542e-05 -0.000570452 -0.000293814  -0.000100652 0.000331152 -0.000315692  -9.24088e-05 -5.54485e-05 -0.000283162  -0.000164244 -0.000135834 -0.000242881  -0.000232824 -0.000256945 -0.000275349  -0.000229274 -0.000681196 -0.000313382  -0.00038907 0.000277587 -0.000329903  -0.000434817 -5.75144e-05 -0.000306928  -0.000551971 -0.000109 -0.000295126  -0.000638306 -0.000270575 -0.000314807  -0.00065474 -0.00070765 -0.000324112  
            </DataArray>
            <DataArray type="Float64" Name="Velocity" NumberOfComponents="3" format="ascii">
               0.000348911 0.000409696 -0.000393482  0.000322198 3.58349e-05 -0.00039075  0.000227613 -8.77626e-05 -0.000373015  0.000117893 -8.88367e-05 -0.000390792  7.58184e-05 -0.000308864 -0.000393875  -3.79134e-05 0.000382142 -0.000389099  -3.9787e-05 3.33781e-05 -0.000353951  -0.000110835 -4.96238e-05 -0.000325986  -0.000179997 -8.36611e-05 -0.000368165  -0.000177075 -0.000352882 -0.000380932  -0.000151892 0.000289203 -0.000372317  -0.000115797 -3.79679e-05 -0.000326496  -0.000158829 -9.06621e-05 -0.000274685  -0.000200542 -0.00015236 -0.000327219  -0.000164571 -0.000461986 -0.000369761  -0.000153608 0.000180872 -0.000391275  -0.000150259 -0.000104752 -0.000369095  -0.000222106 -0.000129117 -0.000327621  -0.000294898 -0.000223572 -0.000356653  -0.000297196 -0.000552711 -0.00038734  -0.0003859 0.000138467 -0.000394094  -0.000429121 -9.97974e-05 -0.000380979  -0.000537934 -9.06205e-05 -0.000369604  -0.000628266 -0.000226168 -0.000386613  -0.000653423 -0.000579245 -0.000388863  
            </DataArray>
            <DataArray type="Float64" Name="Traction" NumberOfComponents="3" format="ascii">
               0 0 0  0 0 0  0 0 0  0 0 0  0 0 0  0 0 0  0 0 0  0 0 0  0 0 0  0 0 0  0 0 0  0 0 0  0 0 0  0 0 0  0 0 0  0 0 0  0 0 0  0 0 0  0 0 0  0 0 0  0 0 0  0 0 0  0 0 0  0 0 0  0 0 0  
            </DataArray>
         </PointData> 
      </Piece>
   </UnstructuredGrid> 
</VTKFile>
