<?xml version="1.0"?>
<VTKFile type="UnstructuredGrid" version="0.1" byte_order="LittleEndian">
   <UnstructuredGrid>
      <Piece NumberOfPoints="25" NumberOfCells="0" > 
         <Points> 
            <DataArray type="Float64" Name="Position" NumberOfComponents="3" format="ascii"> 
               0  0  15  
               0.75  0  15  
               1.5  0  15  
               2.25  0  15  
               3  0  15  
               0  0.75  15  
               0.75  0.75  15  
               1.5  0.75  15  
               2.25  0.75  15  
               3  0.75  15  
               0  1.5  15  
               0.75  1.5  15  
               1.5  1.5  15  
               2.25  1.5  15  
               3  1.5  15  
               0  2.25  15  
               0.75  2.25  15  
               1.5  2.25  15  
               2.25  2.25  15  
               3  2.25  15  
               0  3  15  
               0.75  3  15  
               1.5  3  15  
               2.25  3  15  
               3  3  15  
            </DataArray>
         </Points> 

         <Cells>
            <DataArray type="Int32" Name="connectivity" NumberOfComponents="1" format="ascii">
               
            </DataArray> 
            <DataArray type="Int32" Name="offsets" NumberOfComponents="1" format="ascii">
               
            </DataArray>
            <DataArray type="UInt8"  Name="types" NumberOfComponents="1" format="ascii">
               
            </DataArray>
         </Cells>
         <PointData Scalars="Rank " Vectors="Displacement Velocity Traction ">
            <DataArray type="UInt32" Name="Rank" NumberOfComponents="1" format="ascii">
               0 0 0 0 0 0 0 0 0 0 0 0 0 0 0 0 0 0 0 0 0 0 0 0 0 
            </DataArray>
            <DataArray type="Float64" Name="Displacement" NumberOfComponents="3" format="ascii">
               1.95079e-05 7.62838e-06 -4.08361e-06  1.95169e-05 -5.37619e-07 -4.57594e-06  1.75898e-05 -1.34611e-06 -4.7914e-06  1.52981e-05 1.88729e-06 -4.79925e-06  1.48201e-05 2.07555e-06 -4.06598e-06  3.46212e-06 7.25049e-06 -4.54914e-06  3.72366e-06 -2.2911e-07 -5.01387e-06  3.55685e-06 -8.79684e-07 -5.3578e-06  3.00185e-06 1.95114e-06 -5.38073e-06  3.03733e-06 1.16523e-06 -4.52059e-06  5.08241e-06 6.67851e-06 -4.76422e-06  4.17563e-06 2.97438e-07 -5.36456e-06  1.35421e-06 -1.7742e-06 -5.56078e-06  -1.61073e-06 1.97065e-06 -5.39701e-06  -2.87476e-06 -1.95657e-07 -4.69795e-06  4.52143e-06 5.87976e-06 -4.76186e-06  4.18521e-06 5.63067e-07 -5.38251e-06  3.86439e-06 -3.1263e-06 -5.39362e-06  4.15001e-06 2.08245e-06 -5.08032e-06  3.78579e-06 9.70035e-07 -4.53494e-06  -4.22488e-06 5.43092e-06 -4.05254e-06  -4.61994e-06 6.11074e-07 -4.54888e-06  -5.89724e-06 -3.95926e-06 -4.72378e-06  -4.84872e-06 1.27559e-06 -4.54859e-06  -3.25753e-06 2.2269e-06 -4.02279e-06  
            </DataArray>
            <DataArray type="Float64" Name="Velocity" NumberOfComponents="3" format="ascii">
               2.16765e-05 5.16027e-06 1.69434e-06  2.18771e-05 -2.91948e-07 8.83478e-07  2.04945e-05 9.91442e-07 2.5358e-07  1.8547e-05 3.20601e-06 4.55699e-07  1.82099e-05 2.5437e-06 1.67394e-06  6.59037e-06 5.45237e-06 9.42203e-07  6.78493e-06 1.20568e-07 -4.6479e-07  7.2226e-06 8.28068e-07 -1.27417e-06  7.54406e-06 2.70644e-06 -6.86576e-07  7.98733e-06 1.75687e-06 5.89009e-07  7.26693e-06 5.73509e-06 2.97582e-07  6.2767e-06 6.9618e-07 -1.28519e-06  4.09289e-06 -8.5504e-07 -2.25641e-06  2.25197e-06 1.70996e-06 -1.28531e-06  1.70901e-06 2.91119e-07 3.17199e-07  5.93047e-06 5.36541e-06 4.97224e-07  5.66642e-06 6.91214e-07 -6.89575e-07  5.79567e-06 -2.56671e-06 -1.29586e-06  6.60181e-06 1.37971e-06 -4.86087e-07  6.53434e-06 1.15334e-06 8.87797e-07  3.21457e-07 5.24696e-06 1.69416e-06  3.67414e-07 3.2935e-07 5.72121e-07  4.13803e-07 -3.96921e-06 3.05558e-07  2.44626e-06 5.4641e-07 9.10866e-07  4.06452e-06 2.54131e-06 1.69236e-06  
            </DataArray>
            <DataArray type="Float64" Name="Traction" NumberOfComponents="3" format="ascii">
               0.000307128 0.000313959 0.000281187  -0.000135611 0.000184548 0.000281187  -1.84999e-05 0.000103688 0.000281187  7.04249e-05 0.000242539 0.000281187  -0.000383234 0.00038992 0.000281187  0.000415709 -0.000112559 0.000281187  5.36708e-05 -3.34682e-06 0.000281187  2.78107e-05 0.000103566 0.000281187  4.82686e-05 3.47339e-05 0.000281187  -0.000430263 8.73819e-06 0.000281187  0.000450648 -8.96622e-06 0.000281187  0.000128519 1.6031e-05 0.000281187  3.48502e-05 1.7142e-05 0.000281187  2.16515e-05 1.08985e-05 0.000281187  -0.000547158 -1.14798e-05 0.000281187  0.000458316 7.51522e-05 0.000281187  4.40369e-05 2.64966e-05 0.000281187  2.46322e-05 -5.42892e-05 0.000281187  5.21797e-05 -1.13956e-05 0.000281187  -9.909e-05 -6.75744e-05 0.000281187  0.000481476 -0.000429139 0.000281187  2.55742e-06 -0.000357817 0.000281187  4.63125e-05 -0.000358882 0.000281187  4.10257e-05 -3.34441e-05 0.000281187  0.000323821 0.000251087 0.000281187  
            </DataArray>
         </PointData> 
      </Piece>
   </UnstructuredGrid> 
</VTKFile>
