<?xml version="1.0"?>
<VTKFile type="UnstructuredGrid" version="0.1" byte_order="LittleEndian">
   <UnstructuredGrid>
      <Piece NumberOfPoints="25" NumberOfCells="0" > 
         <Points> 
            <DataArray type="Float64" Name="Position" NumberOfComponents="3" format="ascii"> 
               0  0  15  
               0.75  0  15  
               1.5  0  15  
               2.25  0  15  
               3  0  15  
               0  0.75  15  
               0.75  0.75  15  
               1.5  0.75  15  
               2.25  0.75  15  
               3  0.75  15  
               0  1.5  15  
               0.75  1.5  15  
               1.5  1.5  15  
               2.25  1.5  15  
               3  1.5  15  
               0  2.25  15  
               0.75  2.25  15  
               1.5  2.25  15  
               2.25  2.25  15  
               3  2.25  15  
               0  3  15  
               0.75  3  15  
               1.5  3  15  
               2.25  3  15  
               3  3  15  
            </DataArray>
         </Points> 

         <Cells>
            <DataArray type="Int32" Name="connectivity" NumberOfComponents="1" format="ascii">
               
            </DataArray> 
            <DataArray type="Int32" Name="offsets" NumberOfComponents="1" format="ascii">
               
            </DataArray>
            <DataArray type="UInt8"  Name="types" NumberOfComponents="1" format="ascii">
               
            </DataArray>
         </Cells>
         <PointData Scalars="Rank " Vectors="Displacement Velocity Traction ">
            <DataArray type="UInt32" Name="Rank" NumberOfComponents="1" format="ascii">
               0 0 0 0 0 0 0 0 0 0 0 0 0 0 0 0 0 0 0 0 0 0 0 0 0 
            </DataArray>
            <DataArray type="Float64" Name="Displacement" NumberOfComponents="3" format="ascii">
               4.322e-07 5.29866e-07 -6.51717e-07  4.11833e-07 -5.17639e-08 -5.91592e-07  3.49614e-07 1.71732e-08 -5.34091e-07  2.80662e-07 1.69289e-08 -5.82049e-07  2.57387e-07 -8.50585e-08 -6.51447e-07  -4.26227e-08 4.74972e-07 -5.91663e-07  -3.13707e-08 -5.73966e-08 -4.54706e-07  -2.19493e-08 3.89962e-09 -3.45521e-07  -8.65775e-10 1.95302e-08 -4.5832e-07  8.26542e-09 -1.25138e-07 -5.80745e-07  1.27727e-07 3.36963e-07 -5.34105e-07  9.15051e-08 -1.87615e-08 -3.45513e-07  -4.65208e-08 -4.40107e-08 -1.82349e-07  -1.77052e-07 5.55601e-08 -3.47099e-07  -2.41277e-07 -1.95437e-07 -5.35561e-07  4.84414e-08 2.39332e-07 -5.81913e-07  4.34373e-08 2.59809e-08 -4.58381e-07  6.07989e-08 -1.34306e-07 -3.47107e-07  7.91074e-08 6.04205e-08 -4.56083e-07  5.91608e-08 -2.04013e-07 -5.91575e-07  -2.24558e-07 1.9697e-07 -6.51257e-07  -2.71116e-07 4.49807e-08 -5.80871e-07  -4.35992e-07 -1.49892e-07 -5.35786e-07  -5.39343e-07 2.82806e-08 -5.91771e-07  -5.17795e-07 -2.12286e-07 -6.51868e-07  
            </DataArray>
            <DataArray type="Float64" Name="Velocity" NumberOfComponents="3" format="ascii">
               1.12023e-06 1.28278e-06 -1.32342e-06  1.08287e-06 -9.22123e-08 -1.22032e-06  9.38977e-07 -7.41158e-08 -1.10722e-06  7.812e-07 3.00347e-08 -1.18909e-06  7.31151e-07 -1.76484e-07 -1.32951e-06  -7.58359e-08 1.15527e-06 -1.22064e-06  -3.85827e-08 -1.00379e-07 -9.73797e-07  -4.14434e-08 -6.93728e-08 -8.02641e-07  -3.84587e-08 4.92733e-08 -9.90544e-07  -3.05239e-08 -2.6195e-07 -1.18144e-06  2.62662e-07 8.54683e-07 -1.10715e-06  2.03984e-07 -3.32501e-08 -8.02603e-07  -1.01491e-07 -1.35163e-07 -5.52253e-07  -4.00014e-07 1.3237e-07 -8.07607e-07  -5.4465e-07 -3.90471e-07 -1.1102e-06  1.46095e-07 6.29882e-07 -1.18845e-06  1.36274e-07 5.15275e-08 -9.90768e-07  1.41223e-07 -2.92975e-07 -8.07498e-07  1.62797e-07 1.49455e-07 -9.78637e-07  1.19558e-07 -3.62316e-07 -1.2195e-06  -6.27806e-07 5.31624e-07 -1.32874e-06  -7.34485e-07 1.01508e-07 -1.18198e-06  -1.09282e-06 -3.03434e-07 -1.11104e-06  -1.29887e-06 8.65085e-08 -1.2203e-06  -1.23879e-06 -3.55784e-07 -1.32527e-06  
            </DataArray>
            <DataArray type="Float64" Name="Traction" NumberOfComponents="3" format="ascii">
               2.29118e-05 2.2944e-05 -0.000118737  -7.09513e-06 2.1829e-05 -0.000118737  -2.91383e-06 1.78979e-07 -0.000118737  1.25924e-06 1.08746e-05 -0.000118737  -2.15853e-05 2.47596e-05 -0.000118737  1.56651e-05 -8.01773e-06 -0.000118737  -2.08469e-06 -3.66284e-06 -0.000118737  -1.84883e-07 -4.32373e-06 -0.000118737  3.41091e-06 -1.52559e-06 -0.000118737  -2.75276e-05 3.45878e-06 -0.000118737  1.75885e-05 -1.28121e-06 -0.000118737  -2.73348e-06 -9.66721e-07 -0.000118737  -6.35625e-07 -3.05126e-07 -0.000118737  8.48498e-06 9.44141e-07 -0.000118737  -3.15574e-05 2.5482e-06 -0.000118737  1.98318e-05 3.177e-06 -0.000118737  -1.39377e-06 4.31275e-06 -0.000118737  1.65203e-06 6.29245e-06 -0.000118737  3.48135e-06 2.92666e-06 -0.000118737  -2.24438e-05 -1.62387e-06 -0.000118737  1.61781e-05 -1.25779e-05 -0.000118737  1.00903e-06 -2.15331e-05 -0.000118737  2.22046e-06 -1.57911e-05 -0.000118737  2.05909e-06 -4.9292e-06 -0.000118737  -6.35156e-06 -8.31124e-06 -0.000118737  
            </DataArray>
         </PointData> 
      </Piece>
   </UnstructuredGrid> 
</VTKFile>
